 Gaussian 16, Revision B.01,
 Gaussian 16:  ES64L-G16RevB.01 20-Dec-2017

 ----------------------------------------------------------------------
 # opt=(calcall,tight,cartesian) freq b3lyp/gen nosymm scf=(qc,maxcycle
 =1024) pseudo=read
 ----------------------------------------------------------------------

 ----------------------
 0_opt_freq_from_IRC_re
 ----------------------
 Symbolic Z-matrix:
 Charge =  0 Multiplicity = 1

 SCF Done:  E(RB3LYP) =  -573.626899469     a.u. after    8 cycles
 SCF Done:  E(RB3LYP) =  -573.630245203     a.u. after    5 cycles
 SCF Done:  E(RB3LYP) =  -573.630247920     a.u. after    9 cycles
 SCF Done:  E(RB3LYP) =  -573.630295872     a.u. after    5 cycles
 SCF Done:  E(RB3LYP) =  -573.629957238     a.u. after   11 cycles
 SCF Done:  E(RB3LYP) =  -573.630182914     a.u. after    7 cycles
 SCF Done:  E(RB3LYP) =  -573.626544544     a.u. after    9 cycles
 SCF Done:  E(RB3LYP) =  -573.630299510     a.u. after    2 cycles
 SCF Done:  E(RB3LYP) =  -573.630295597     a.u. after    8 cycles
 SCF Done:  E(RB3LYP) =  -573.630307956     a.u. after    5 cycles
 SCF Done:  E(RB3LYP) =  -573.630333418     a.u. after    4 cycles
 SCF Done:  E(RB3LYP) =  -573.630333882     a.u. after    4 cycles
 SCF Done:  E(RB3LYP) =  -573.630334250     a.u. after    4 cycles
 SCF Done:  E(RB3LYP) =  -573.630334365     a.u. after    4 cycles
 SCF Done:  E(RB3LYP) =  -573.630334539     a.u. after    4 cycles
 SCF Done:  E(RB3LYP) =  -573.630334569     a.u. after    4 cycles
 SCF Done:  E(RB3LYP) =  -573.630334575     a.u. after    2 cycles
 SCF Done:  E(RB3LYP) =  -573.630334574     a.u. after    2 cycles
 SCF Done:  E(RB3LYP) =  -573.630334574     a.u. after    2 cycles
 Optimization completed.
    -- Stationary point found.
 Normal termination of Gaussian 16 at Tue Aug  8 13:25:53 2023.

 ------------------------------------------------------------------
 #N Geom=AllCheck Guess=TCheck SCRF=Check GenChk RB3LYP/ChkBas Freq
 ------------------------------------------------------------------

 Structure from the checkpoint file:  "0_opt_freq_from_IRC_re.chk"
 ----------------------
 0_opt_freq_from_IRC_re
 ----------------------
 Charge =  0 Multiplicity = 1

                          Input orientation:
 ---------------------------------------------------------------------
 Center     Atomic      Atomic             Coordinates (Angstroms)
 Number     Number       Type             X           Y           Z
 ---------------------------------------------------------------------
      1          6           0       -4.799042   -2.374365   -1.116705
      2          6           0       -3.505091   -2.296225   -1.436870
      3          6           0       -2.398529   -2.131063   -0.438591
      4          8           0       -1.585183   -1.026381   -0.828685
      5          6           0       -0.463384   -0.833970    0.017223
      6          6           0        0.257449    0.409475   -0.444813
      7          6           0        1.412607    0.341871   -1.350422
      8          8           0        1.592348    0.565982    0.061238
      9          1           0       -5.563632   -2.526914   -1.872775
     10          1           0       -5.138658   -2.291972   -0.086413
     11          1           0       -3.190022   -2.370409   -2.476917
     12          1           0       -1.778074   -3.044233   -0.407854
     13          1           0       -2.806151   -1.970165    0.572034
     14          1           0        0.219708   -1.697575   -0.022646
     15          1           0       -0.785459   -0.706163    1.063906
     16          1           0       -0.339722    1.321760   -0.433219
     17          1           0        1.654453    1.193434   -1.984070
     18          1           0        1.756859   -0.627978   -1.707199
     19          6           0        2.980525    2.164713    1.985538
     20          8           0        2.042473    2.143066    2.684521
     21          8           0        3.938451    2.211301    1.316007
 ---------------------------------------------------------------------

 SCF Done:  E(RB3LYP) =  -573.630334574     a.u. after    1 cycles

 Alpha  occ. eigenvalues --  -19.22855 -19.22848 -19.17724 -19.16691 -10.37764
 Alpha  occ. eigenvalues --  -10.25356 -10.24807 -10.24727 -10.24708 -10.20227
 Alpha  occ. eigenvalues --  -10.19462  -1.15512  -1.11437  -1.08843  -1.05082
 Alpha  occ. eigenvalues --   -0.80488  -0.74942  -0.68207  -0.66910  -0.60975
 Alpha  occ. eigenvalues --   -0.57405  -0.55707  -0.52997  -0.51246  -0.50742
 Alpha  occ. eigenvalues --   -0.50668  -0.50518  -0.50051  -0.48307  -0.46189
 Alpha  occ. eigenvalues --   -0.43573  -0.41211  -0.40258  -0.39169  -0.36581
 Alpha  occ. eigenvalues --   -0.36541  -0.36357  -0.34020  -0.32352  -0.29055
 Alpha  occ. eigenvalues --   -0.28335  -0.27151
 Alpha virt. eigenvalues --   -0.01565  -0.00548   0.00705   0.01430   0.02001
 Alpha virt. eigenvalues --    0.02217   0.03180   0.03226   0.03404   0.04225
 Alpha virt. eigenvalues --    0.04613   0.05164   0.05853   0.06112   0.06954

 Mulliken charges:
               1
     1  C   -0.300921
     2  C    0.029048
     3  C   -0.188890
     4  O   -0.325284
     5  C   -0.090470
     6  C   -0.184618
     7  C    0.042190
     8  O   -0.342364
     9  H    0.139283
    10  H    0.133149
    11  H    0.140148
    12  H    0.128779
    13  H    0.120096
    14  H    0.122600
    15  H    0.132631
    16  H    0.150957
    17  H    0.143930
    18  H    0.139842
    19  C    0.662230
    20  O   -0.325961
    21  O   -0.326374
 Sum of Mulliken charges =   0.00000

 Dipole moment (field-independent basis, Debye):
    X=             -1.3224    Y=             -1.4326    Z=             -0.8570  Tot=              2.1297
 Quadrupole moment (field-independent basis, Debye-Ang):
   XX=            -68.1278   YY=            -62.7757   ZZ=            -64.7128
   XY=              0.3942   XZ=             -3.1529   YZ=             -1.3438

  Exact polarizability: 122.556  13.670  78.788  -6.344   1.318  86.408
 Approx polarizability: 165.816   5.200 101.601 -22.831  -0.440 126.223

                      1                      2                      3
                      A                      A                      A
 Frequencies --      7.9355                11.0467                18.9738
 Red. masses --      8.2932                 5.1065                 4.5182
 Frc consts  --      0.0003                 0.0004                 0.0010
 IR Inten    --      0.0263                 0.1268                 0.1511

                      4                      5                      6
                      A                      A                      A
 Frequencies --     43.4410                57.4663                61.2152
 Red. masses --      4.5511                 2.8825                 7.9178
 Frc consts  --      0.0051                 0.0056                 0.0175
 IR Inten    --      0.9482                 0.9589                 0.8017

                      7                      8                      9
                      A                      A                      A
 Frequencies --     94.3145               105.1539               132.8907
 Red. masses --      3.7072                 5.1978                 3.4788
 Frc consts  --      0.0194                 0.0339                 0.0362
 IR Inten    --      0.5504                 0.0878                 7.2801

                     10                     11                     12
                      A                      A                      A
 Frequencies --    139.5990               283.7685               318.9781
 Red. masses --      3.2050                 2.8088                 3.9995
 Frc consts  --      0.0368                 0.1333                 0.2398
 IR Inten    --      2.7641                12.2371                 2.7017

                     13                     14                     15
                      A                      A                      A
 Frequencies --    403.5134               456.6070               491.6835
 Red. masses --      2.2704                 2.5053                 2.7076
 Frc consts  --      0.2178                 0.3077                 0.3857
 IR Inten    --      0.4028                 1.9687                 0.5922

                     16                     17                     18
                      A                      A                      A
 Frequencies --    642.1486               653.7778               659.4407
 Red. masses --     12.9041                 1.7271                12.8597
 Frc consts  --      3.1351                 0.4349                 3.2948
 IR Inten    --     69.3503                 5.5605                28.3781

                     19                     20                     21
                      A                      A                      A
 Frequencies --    830.3514               870.7921               914.4323
 Red. masses --      3.9230                 4.0371                 1.2442
 Frc consts  --      1.5937                 1.8036                 0.6130
 IR Inten    --     25.4250                35.2839                 6.9926

                     22                     23                     24
                      A                      A                      A
 Frequencies --    938.1728               957.4723               984.2696
 Red. masses --      1.4442                 1.3335                 1.9781
 Frc consts  --      0.7489                 0.7203                 1.1291
 IR Inten    --      6.1190                51.6425                 2.7402

                     25                     26                     27
                      A                      A                      A
 Frequencies --   1009.5066              1022.0464              1036.0487
 Red. masses --      2.3812                 1.2093                 2.3234
 Frc consts  --      1.4298                 0.7443                 1.4694
 IR Inten    --     31.9860                 8.4195                42.2885

                     28                     29                     30
                      A                      A                      A
 Frequencies --   1104.7678              1139.0731              1152.0998
 Red. masses --      1.4802                 7.0142                 1.4281
 Frc consts  --      1.0644                 5.3621                 1.1168
 IR Inten    --      4.1990               253.6950                 2.8280

                     31                     32                     33
                      A                      A                      A
 Frequencies --   1157.4493              1180.4032              1182.4710
 Red. masses --      1.5000                 1.9376                 1.6134
 Frc consts  --      1.1839                 1.5907                 1.3291
 IR Inten    --      2.6382                 8.4945                 9.3230

                     34                     35                     36
                      A                      A                      A
 Frequencies --   1245.8112              1263.7615              1283.9331
 Red. masses --      1.1716                 1.1433                 1.4471
 Frc consts  --      1.0713                 1.0758                 1.4055
 IR Inten    --      6.5432                 5.4373                 5.8370

                     37                     38                     39
                      A                      A                      A
 Frequencies --   1313.7025              1362.3940              1365.4554
 Red. masses --      1.2619                15.5490                 1.2560
 Frc consts  --      1.2831                17.0043                 1.3797
 IR Inten    --      0.6433                 0.9984                70.7777

                     40                     41                     42
                      A                      A                      A
 Frequencies --   1409.4353              1458.0765              1475.0243
 Red. masses --      1.4049                 1.3784                 1.4456
 Frc consts  --      1.6444                 1.7266                 1.8530
 IR Inten    --      2.5269                 5.7575                 8.7997

                     43                     44                     45
                      A                      A                      A
 Frequencies --   1505.7961              1520.4764              1535.6407
 Red. masses --      1.1055                 1.1291                 1.3607
 Frc consts  --      1.4769                 1.5380                 1.8905
 IR Inten    --      4.9868                 3.8270                 4.7698

                     46                     47                     48
                      A                      A                      A
 Frequencies --   1717.6849              2411.9209              2959.5728
 Red. masses --      4.6195                12.8707                 1.0617
 Frc consts  --      8.0303                44.1143                 5.4789
 IR Inten    --      2.6523               586.2226                37.3480

                     49                     50                     51
                      A                      A                      A
 Frequencies --   2980.3696              3008.9404              3016.9618
 Red. masses --      1.0559                 1.0976                 1.1066
 Frc consts  --      5.5259                 5.8548                 5.9344
 IR Inten    --     58.4174                61.4612                22.2074

                     52                     53                     54
                      A                      A                      A
 Frequencies --   3108.3635              3139.0272              3148.9771
 Red. masses --      1.0505                 1.0898                 1.0590
 Frc consts  --      5.9800                 6.3271                 6.1868
 IR Inten    --     21.2353                16.8767                10.2887

                     55                     56                     57
                      A                      A                      A
 Frequencies --   3166.8679              3199.9957              3236.7580
 Red. masses --      1.0923                 1.1209                 1.1155
 Frc consts  --      6.4543                 6.7629                 6.8856
 IR Inten    --      6.1427                19.7470                14.4198

 - Thermochemistry -
 -------------------
 Temperature   298.150 Kelvin.  Pressure   1.00000 Atm.
 Atom     1 has atomic number  6 and mass  12.00000

 Molecular mass:   158.05791 amu.
 Principal axes and moments of inertia in atomic units:
                           1         2         3
     Eigenvalues --   557.863076159.312716552.03699
           X            0.79630  -0.43382  -0.42156
           Y            0.51192   0.11202   0.85170
           Z            0.32226   0.89401  -0.31128
 This molecule is an asymmetric top.
 Rotational symmetry number  1.
 Warning -- assumption of classical behavior for rotation
           may cause significant error
 Rotational temperatures (Kelvin)      0.15526     0.01406     0.01322
 Rotational constants (GHZ):           3.23510     0.29301     0.27545
 Zero-point vibrational energy     430035.1 (Joules/Mol)
                                  102.78086 (Kcal/Mol)
 Warning -- explicit consideration of  15 degrees of freedom as
           vibrations may cause significant error
 Vibrational temperatures:     11.42    15.89    27.30    62.50    82.68
          (Kelvin)             88.08   135.70   151.29   191.20   200.85
                              408.28   458.94   580.57   656.96   707.42
                              923.91   940.64   948.79  1194.69  1252.88
                             1315.66  1349.82  1377.59  1416.14  1452.45
                             1470.50  1490.64  1589.51  1638.87  1657.61
                             1665.31  1698.34  1701.31  1792.44  1818.27
                             1847.29  1890.12  1960.18  1964.59  2027.86
                             2097.85  2122.23  2166.50  2187.63  2209.44
                             2471.37  3470.22  4258.17  4288.09  4329.19
                             4340.74  4472.24  4516.36  4530.68  4556.42
                             4604.08  4656.97

 Zero-point correction=                           0.163792 (Hartree/Particle)
 Thermal correction to Energy=                    0.177325
 Thermal correction to Enthalpy=                  0.178269
 Thermal correction to Gibbs Free Energy=         0.116392
 Sum of electronic and zero-point Energies=           -573.466543
 Sum of electronic and thermal Energies=              -573.453010
 Sum of electronic and thermal Enthalpies=            -573.452066
 Sum of electronic and thermal Free Energies=         -573.513943

                     E (Thermal)             CV                S
                      KCal/Mol        Cal/Mol-Kelvin    Cal/Mol-Kelvin
 Total                  111.273             42.557            130.232
 Electronic               0.000              0.000              0.000
 Translational            0.889              2.981             41.083
 Rotational               0.889              2.981             31.488
 Vibrational            109.495             36.595             57.661
 Vibration     1          0.593              1.987              8.470
 Vibration     2          0.593              1.987              7.813
 Vibration     3          0.593              1.986              6.739
 Vibration     4          0.595              1.980              5.096
 Vibration     5          0.596              1.975              4.542
 Vibration     6          0.597              1.973              4.418
 Vibration     7          0.603              1.953              3.569
 Vibration     8          0.605              1.945              3.356
 Vibration     9          0.613              1.920              2.904
 Vibration    10          0.615              1.914              2.809
 Vibration    11          0.682              1.704              1.511
 Vibration    12          0.705              1.637              1.315
 Vibration    13          0.769              1.463              0.950
 Vibration    14          0.815              1.346              0.776
 Vibration    15          0.847              1.268              0.679

 Optimization completed.
    -- Stationary point found.
 Normal termination of Gaussian 16 at Tue Aug  8 13:27:06 2023.
