 Gaussian 16, Revision C.01,
 Gaussian 16:  ES64L-G16RevC.01  3-Jul-2019

 ----------------------------------------------------------------------
 # opt=(calcall,tight,cartesian) freq b3lyp/gen nosymm scf=(qc,maxcycle
 =1024) pseudo=read
 ----------------------------------------------------------------------

 ----------------------------------------------------
 paddle_new_AGE_TEABr_ro_CO2_bind_opt_freq_reposition
 ----------------------------------------------------
 Symbolic Z-matrix:
 Charge =  0 Multiplicity = 1

 SCF Done:  E(RB3LYP) =  -4652.81754373     a.u. after   11 cycles
 SCF Done:  E(RB3LYP) =  -4652.88328573     a.u. after   14 cycles
 SCF Done:  E(RB3LYP) =  -4652.96087794     a.u. after   19 cycles
 SCF Done:  E(RB3LYP) =  -4653.01048055     a.u. after   21 cycles
 SCF Done:  E(RB3LYP) =  -4653.02583280     a.u. after   19 cycles
 SCF Done:  E(RB3LYP) =  -4653.04356196     a.u. after   19 cycles
 SCF Done:  E(RB3LYP) =  -4653.05983396     a.u. after   19 cycles
 SCF Done:  E(RB3LYP) =  -4653.06746133     a.u. after   15 cycles
 SCF Done:  E(RB3LYP) =  -4653.07321202     a.u. after   13 cycles
 SCF Done:  E(RB3LYP) =  -4653.07791569     a.u. after   19 cycles
 SCF Done:  E(RB3LYP) =  -4653.08687522     a.u. after   11 cycles
 SCF Done:  E(RB3LYP) =  -4653.08688855     a.u. after    4 cycles
 SCF Done:  E(RB3LYP) =  -4653.08688781     a.u. after   11 cycles
 SCF Done:  E(RB3LYP) =  -4653.08689535     a.u. after   12 cycles
 SCF Done:  E(RB3LYP) =  -4653.08689604     a.u. after    4 cycles
 SCF Done:  E(RB3LYP) =  -4653.08689663     a.u. after    4 cycles
 SCF Done:  E(RB3LYP) =  -4653.08689668     a.u. after    3 cycles
 SCF Done:  E(RB3LYP) =  -4653.08689668     a.u. after    2 cycles
 SCF Done:  E(RB3LYP) =  -4653.08689668     a.u. after    2 cycles
 Optimization completed on the basis of negligible forces.
    -- Stationary point found.
 Normal termination of Gaussian 16 at Thu Jul  6 16:52:05 2023.

 ------------------------------------------------------------------
 #N Geom=AllCheck Guess=TCheck SCRF=Check GenChk RB3LYP/ChkBas Freq
 ------------------------------------------------------------------

 Structure from the checkpoint file:  "paddle_new_AGE_TEABr_ro_CO2_bind_opt_freq_reposition.chk"
 ----------------------------------------------------
 paddle_new_AGE_TEABr_ro_CO2_bind_opt_freq_reposition
 ----------------------------------------------------
 Charge =  0 Multiplicity = 1

                          Input orientation:
 ---------------------------------------------------------------------
 Center     Atomic      Atomic             Coordinates (Angstroms)
 Number     Number       Type             X           Y           Z
 ---------------------------------------------------------------------
      1         30           0       -4.694489   -2.528905    2.326317
      2          8           0       -4.600022   -0.931734    3.631360
      3          8           0       -2.344749   -0.861359    3.544968
      4          8           0       -3.771400   -1.279734    0.828231
      5          8           0       -1.522111   -1.105967    0.675230
      6          6           0       -3.461226   -0.468815    3.942742
      7          6           0       -2.703539   -0.842639    0.321243
      8         30           0       -1.164774   -2.525022    2.129611
      9          8           0       -2.280469   -4.001527    0.968778
     10          8           0       -4.539354   -4.115561    1.014246
     11          8           0       -1.332009   -3.682110    3.802896
     12          8           0       -3.593209   -3.694425    3.770586
     13          6           0       -3.384903   -4.484776    0.641370
     14          6           0       -2.467582   -4.041605    4.218740
     15          1           0       -3.455408    0.383834    4.642316
     16          1           0       -2.790739   -0.146153   -0.527563
     17          1           0       -3.347035   -5.335536   -0.059501
     18          1           0       -2.451967   -4.740511    5.069891
     19          6           0       -7.533844   -1.751514    3.144391
     20          6           0       -8.925190   -1.779770    3.209727
     21          6           0       -9.615492   -2.737870    2.465207
     22          6           0       -8.889458   -3.635442    1.680343
     23          6           0       -7.499316   -3.544901    1.666524
     24          7           0       -6.834486   -2.619084    2.386057
     25          1           0      -10.700185   -2.784227    2.496111
     26          1           0       -6.942948   -1.030371    3.700081
     27          1           0       -9.449248   -1.063042    3.832903
     28          1           0       -9.385065   -4.395750    1.086214
     29          1           0       -6.881618   -4.214494    1.076539
     30          6           0        1.466877   -1.693244    8.588192
     31          6           0        1.786836   -0.709342    7.743466
     32          6           0        0.856817   -0.137272    6.713637
     33          8           0        1.515265   -0.116790    5.458384
     34          6           0        0.753556    0.539515    4.448323
     35          6           0        1.310512    0.157528    3.084740
     36          6           0        0.848279    1.089763    1.962977
     37          8           0        0.783430   -1.128475    2.758193
     38          1           0        2.169407   -2.054320    9.334501
     39          1           0        0.494125   -2.178917    8.553403
     40          1           0        2.777523   -0.256412    7.778420
     41          1           0        0.579397    0.894204    7.004860
     42          1           0       -0.071345   -0.726515    6.655111
     43          1           0        0.815042    1.629635    4.590686
     44          1           0       -0.299299    0.227216    4.487330
     45          1           0        2.402884    0.102571    3.108251
     46          1           0        1.166011    0.706426    0.996827
     47          1           0       -0.227866    1.253275    1.974448
     48          7           0        9.323654    7.878593   -9.418327
     49          6           0        8.775192    8.666291  -10.627481
     50          6           0        7.270430    8.622886  -10.872553
     51          1           0        9.313044    8.270702  -11.501210
     52          1           0        9.078220    9.701899  -10.450984
     53          1           0        7.103577    9.157016  -11.813418
     54          1           0        6.883739    7.613699  -11.013723
     55          1           0        6.683343    9.128889  -10.100249
     56          6           0        8.391804    8.049291   -8.231660
     57          6           0        8.839774    7.404936   -6.922216
     58          1           0        7.428152    7.640829   -8.531655
     59          1           0        8.266006    9.128533   -8.103645
     60          1           0        8.060745    7.595195   -6.177194
     61          1           0        8.950718    6.321056   -7.006041
     62          1           0        9.770233    7.824714   -6.532814
     63          6           0       10.688373    8.483285   -9.054888
     64          6           0       11.654868    8.714255  -10.214541
     65          1           0       11.128756    7.801136   -8.326361
     66          1           0       10.466507    9.425674   -8.544057
     67          1           0       12.641714    8.907473   -9.780939
     68          1           0       11.730791    7.864246  -10.899138
     69          1           0       11.379340    9.583125  -10.815579
     70          6           0        9.559677    6.396005   -9.755568
     71          6           0        8.331274    5.543955  -10.042216
     72          1           0       10.119726    5.997221   -8.907378
     73          1           0       10.186439    6.391655  -10.656259
     74          1           0        8.684305    4.510323  -10.113993
     75          1           0        7.563082    5.575454   -9.262716
     76          1           0        7.896991    5.784870  -11.013421
     77         35           0        1.676084    2.910393    2.085817
     78          6           0        1.516961   -1.975374    1.861894
     79          8           0        0.773432   -2.949231    1.534395
     80          8           0        2.663958   -1.671587    1.549474
 ---------------------------------------------------------------------

 SCF Done:  E(RB3LYP) =  -4653.08689668     a.u. after    1 cycles

 Alpha  occ. eigenvalues -- -482.60573 -61.69075 -56.26000 -56.25682 -56.25666
 Alpha  occ. eigenvalues --  -19.08747 -19.08643 -19.06559 -19.06001 -19.05620
 Alpha  occ. eigenvalues --  -19.05549 -19.05459 -19.05323 -19.05291 -19.04520
 Alpha  occ. eigenvalues --  -19.02839 -19.01946 -14.57803 -14.34567 -10.36597
 Alpha  occ. eigenvalues --  -10.36382 -10.36323 -10.35959 -10.30488 -10.30152
 Alpha  occ. eigenvalues --  -10.30096 -10.29890 -10.23573 -10.22687 -10.22361
 Alpha  occ. eigenvalues --  -10.22049 -10.21902 -10.21417 -10.21393 -10.20315
 Alpha  occ. eigenvalues --  -10.19010 -10.19002 -10.17597 -10.17139 -10.16953
 Alpha  occ. eigenvalues --  -10.15771 -10.14177 -10.13455  -8.46154  -6.47682
 Alpha  occ. eigenvalues --   -6.46563  -6.46543  -2.59656  -2.59346  -2.59329
 Alpha  occ. eigenvalues --   -2.58438  -2.58437  -1.12799  -1.00639  -0.98984
 Alpha  occ. eigenvalues --   -0.98376  -0.98127  -0.97825  -0.97173  -0.94213
 Alpha  occ. eigenvalues --   -0.91391  -0.91093  -0.90886  -0.90709  -0.90486
 Alpha  occ. eigenvalues --   -0.89906  -0.89638  -0.89501  -0.88517  -0.85632
 Alpha  occ. eigenvalues --   -0.80018  -0.78295  -0.77633  -0.76648  -0.75688
 Alpha  occ. eigenvalues --   -0.74604  -0.73356  -0.69958  -0.67862  -0.64289
 Alpha  occ. eigenvalues --   -0.64166  -0.62849  -0.62656  -0.62341  -0.62272
 Alpha  occ. eigenvalues --   -0.59823  -0.58470  -0.58411  -0.56143  -0.55752
 Alpha  occ. eigenvalues --   -0.55195  -0.54152  -0.53804  -0.53655  -0.53404
 Alpha  occ. eigenvalues --   -0.52843  -0.52787  -0.52695  -0.52368  -0.52094
 Alpha  occ. eigenvalues --   -0.51877  -0.51540  -0.51200  -0.51137  -0.51014
 Alpha  occ. eigenvalues --   -0.50874  -0.50744  -0.50627  -0.50618  -0.50503
 Alpha  occ. eigenvalues --   -0.50014  -0.49908  -0.49752  -0.48848  -0.48149
 Alpha  occ. eigenvalues --   -0.47996  -0.47957  -0.47687  -0.47491  -0.47087
 Alpha  occ. eigenvalues --   -0.46624  -0.46033  -0.43880  -0.42625  -0.42450
 Alpha  occ. eigenvalues --   -0.42321  -0.41128  -0.40505  -0.40036  -0.39793
 Alpha  occ. eigenvalues --   -0.39744  -0.39304  -0.39130  -0.38663  -0.38331
 Alpha  occ. eigenvalues --   -0.38058  -0.37586  -0.37386  -0.35957  -0.35571
 Alpha  occ. eigenvalues --   -0.35473  -0.35454  -0.35184  -0.34046  -0.33818
 Alpha  occ. eigenvalues --   -0.33553  -0.32333  -0.32166  -0.32084  -0.31530
 Alpha  occ. eigenvalues --   -0.29610  -0.29306  -0.28714  -0.27024  -0.25675
 Alpha  occ. eigenvalues --   -0.25643  -0.25095  -0.22870  -0.22492  -0.22364
 Alpha  occ. eigenvalues --   -0.22110  -0.21815  -0.21624  -0.21328  -0.20947
 Alpha  occ. eigenvalues --   -0.20744  -0.20684  -0.20315  -0.20109  -0.19941
 Alpha  occ. eigenvalues --   -0.19855  -0.19529  -0.18909  -0.18170  -0.17852
 Alpha  occ. eigenvalues --   -0.16745
 Alpha virt. eigenvalues --   -0.10205  -0.08518  -0.08426  -0.08261  -0.06267
 Alpha virt. eigenvalues --   -0.06153  -0.05113  -0.04837  -0.04464  -0.04284
 Alpha virt. eigenvalues --   -0.03139  -0.02602  -0.02388  -0.01747  -0.01190

 Mulliken charges:
               1
     1  Zn   0.728850
     2  O   -0.500657
     3  O   -0.510990
     4  O   -0.467049
     5  O   -0.449751
     6  C    0.451588
     7  C    0.454991
     8  Zn   0.577183
     9  O   -0.416057
    10  O   -0.519949
    11  O   -0.418356
    12  O   -0.464785
    13  C    0.448498
    14  C    0.433349
    15  H    0.057828
    16  H    0.066086
    17  H    0.070377
    18  H    0.071261
    19  C   -0.296365
    20  C    0.088549
    21  C   -0.570905
    22  C    0.064373
    23  C   -0.299867
    24  N    0.211054
    25  H    0.135737
    26  H    0.200654
    27  H    0.137082
    28  H    0.136949
    29  H    0.199501
    30  C   -0.312357
    31  C    0.052380
    32  C   -0.176534
    33  O   -0.305075
    34  C   -0.467726
    35  C    0.110738
    36  C   -0.146096
    37  O   -0.284815
    38  H    0.122802
    39  H    0.133061
    40  H    0.128099
    41  H    0.113020
    42  H    0.135951
    43  H    0.115027
    44  H    0.169220
    45  H    0.176610
    46  H    0.200026
    47  H    0.195121
    48  N   -0.711814
    49  C    0.078233
    50  C   -0.609562
    51  H    0.192219
    52  H    0.189005
    53  H    0.186986
    54  H    0.173143
    55  H    0.179892
    56  C    0.047533
    57  C   -0.559836
    58  H    0.194685
    59  H    0.192408
    60  H    0.195966
    61  H    0.177247
    62  H    0.174814
    63  C    0.119803
    64  C   -0.535241
    65  H    0.187712
    66  H    0.194763
    67  H    0.189019
    68  H    0.171382
    69  H    0.175732
    70  C    0.033535
    71  C   -0.542869
    72  H    0.186692
    73  H    0.183366
    74  H    0.190849
    75  H    0.176205
    76  H    0.168131
    77  Br  -0.285632
    78  C    0.672817
    79  O   -0.449693
    80  O   -0.516126
 Sum of Mulliken charges =  -0.00000

 Dipole moment (field-independent basis, Debye):
    X=             36.9193    Y=             45.4622    Z=            -54.6735  Tot=             80.1189
 Quadrupole moment (field-independent basis, Debye-Ang):
   XX=            179.4654   YY=             -7.8613   ZZ=            138.1425
   XY=            357.5728   XZ=           -434.4196   YZ=           -334.9071

  Exact polarizability:     448.123      33.045     381.617       1.685       3.180     365.851
 Approx polarizability:     618.557      27.874     541.027     -10.553      22.008     490.573

                      1                      2                      3
                      A                      A                      A
 Frequencies --      4.8008                 7.5022                13.2871
 Red. masses --      8.5744                 7.8824                 8.3256
 Frc consts  --      0.0001                 0.0003                 0.0009
 IR Inten    --      0.0423                 0.2743                 0.6756

                      4                      5                      6
                      A                      A                      A
 Frequencies --     15.0159                25.2652                41.9173
 Red. masses --      7.1689                10.5234                 3.5786
 Frc consts  --      0.0010                 0.0040                 0.0037
 IR Inten    --      0.2428                 1.1908                 2.6733

                      7                      8                      9
                      A                      A                      A
 Frequencies --     44.7076                61.6298                73.8017
 Red. masses --      3.5644                 8.1724                 5.2251
 Frc consts  --      0.0042                 0.0183                 0.0168
 IR Inten    --      1.4878                 3.7357                 1.3209

                     10                     11                     12
                      A                      A                      A
 Frequencies --     78.5105                87.3420               120.2605
 Red. masses --      3.8685                22.8320                21.2838
 Frc consts  --      0.0140                 0.1026                 0.1814
 IR Inten    --      0.4231                 6.6378                16.7993

                     13                     14                     15
                      A                      A                      A
 Frequencies --    128.3709               132.1075               145.5050
 Red. masses --      4.2505                 2.8754                13.9305
 Frc consts  --      0.0413                 0.0296                 0.1738
 IR Inten    --      2.2012                 1.6759                 3.3304

                     16                     17                     18
                      A                      A                      A
 Frequencies --    172.8054               202.5685               211.7331
 Red. masses --      5.2583                29.8983                 4.4724
 Frc consts  --      0.0925                 0.7228                 0.1181
 IR Inten    --      1.2180                 1.7893                 6.1333

                     19                     20                     21
                      A                      A                      A
 Frequencies --    216.7382               254.4694               255.8572
 Red. masses --     13.5011                15.4210                 5.5007
 Frc consts  --      0.3737                 0.5883                 0.2122
 IR Inten    --      0.7949                31.3701                58.1726

                     22                     23                     24
                      A                      A                      A
 Frequencies --    263.3131               277.2100               292.0144
 Red. masses --     14.0082                14.1896                 6.9954
 Frc consts  --      0.5722                 0.6424                 0.3515
 IR Inten    --     47.4966                 0.1264                 9.7484

                     25                     26                     27
                      A                      A                      A
 Frequencies --    310.5517               351.8522               407.1863
 Red. masses --      6.9974                 3.5010                11.2273
 Frc consts  --      0.3976                 0.2554                 1.0968
 IR Inten    --     24.4563                 3.9091                45.6323

                     28                     29                     30
                      A                      A                      A
 Frequencies --    407.9094               410.3998               473.3235
 Red. masses --      9.5193                 3.4003                 2.9750
 Frc consts  --      0.9332                 0.3374                 0.3927
 IR Inten    --     14.9617                10.7998                 1.5515

                     31                     32                     33
                      A                      A                      A
 Frequencies --    491.2035               495.4667               506.4923
 Red. masses --     12.2347                 2.7554                16.4583
 Frc consts  --      1.7393                 0.3985                 2.4876
 IR Inten    --     18.9989                 7.0415                81.7818

                     34                     35                     36
                      A                      A                      A
 Frequencies --    588.2408               647.2358               658.2383
 Red. masses --      6.7938                 1.9990                 3.6268
 Frc consts  --      1.3851                 0.4934                 0.9259
 IR Inten    --     47.8723                 4.3881                42.0060

                     37                     38                     39
                      A                      A                      A
 Frequencies --    710.1689               794.8548               828.5372
 Red. masses --      6.3645                12.4700                 1.7578
 Frc consts  --      1.8912                 4.6419                 0.7110
 IR Inten    --      6.5604                27.6153                 7.5247

                     40                     41                     42
                      A                      A                      A
 Frequencies --    866.5117               936.8830               941.5030
 Red. masses --      3.8727                 1.4017                 1.3705
 Frc consts  --      1.7132                 0.7249                 0.7158
 IR Inten    --    189.6580                 4.9744                42.0972

                     43                     44                     45
                      A                      A                      A
 Frequencies --    970.0112               985.8370              1016.6124
 Red. masses --      2.5725                 2.1313                 2.2965
 Frc consts  --      1.4261                 1.2204                 1.3984
 IR Inten    --    129.1305                15.4772                44.5758

                     46                     47                     48
                      A                      A                      A
 Frequencies --   1025.6974              1042.0035              1044.5744
 Red. masses --      1.4230                13.2712                15.8847
 Frc consts  --      0.8821                 8.4898                10.2119
 IR Inten    --     77.0255                63.2236                44.3514

                     49                     50                     51
                      A                      A                      A
 Frequencies --   1047.9166              1071.1044              1091.2323
 Red. masses --      1.9579                15.8158                 9.2584
 Frc consts  --      1.2668                10.6907                 6.4956
 IR Inten    --     13.1744               115.7092               530.2796

                     52                     53                     54
                      A                      A                      A
 Frequencies --   1102.4454              1118.3499              1147.7071
 Red. masses --      4.4049                 2.6193                 4.6013
 Frc consts  --      3.1543                 1.9301                 3.5710
 IR Inten    --    149.7444                66.0517               200.5822

                     55                     56                     57
                      A                      A                      A
 Frequencies --   1169.7160              1197.8177              1252.9778
 Red. masses --      1.6681                 1.7568                 1.1631
 Frc consts  --      1.3447                 1.4851                 1.0758
 IR Inten    --      2.3945                19.7403                35.5226

                     58                     59                     60
                      A                      A                      A
 Frequencies --   1261.6561              1289.7369              1298.2701
 Red. masses --      1.1264                 4.1528                 1.1646
 Frc consts  --      1.0563                 4.0700                 1.1565
 IR Inten    --      2.9086               270.7608                13.2235

                     61                     62                     63
                      A                      A                      A
 Frequencies --   1310.7615              1344.7977              1368.9528
 Red. masses --      1.2765                 1.4475                 1.3561
 Frc consts  --      1.2922                 1.5424                 1.4973
 IR Inten    --      0.1121                19.6032                34.8079

                     64                     65                     66
                      A                      A                      A
 Frequencies --   1384.6503              1446.3176              1466.5345
 Red. masses --      1.3000                 1.3527                 1.1642
 Frc consts  --      1.4684                 1.6672                 1.4752
 IR Inten    --     33.6517                 2.8510                21.4586

                     67                     68                     69
                      A                      A                      A
 Frequencies --   1471.2174              1503.3428              1523.7567
 Red. masses --      1.2556                 1.0995                 1.0864
 Frc consts  --      1.6012                 1.4640                 1.4861
 IR Inten    --      1.9744                 5.3254                 6.2588

                     70                     71                     72
                      A                      A                      A
 Frequencies --   1715.3205              1804.1655              2928.1942
 Red. masses --      4.6648                12.6201                 1.0689
 Frc consts  --      8.0867                24.2029                 5.4001
 IR Inten    --      5.8672               825.8714                58.8701

                     73                     74                     75
                      A                      A                      A
 Frequencies --   2994.5357              3014.1975              3053.5064
 Red. masses --      1.0598                 1.0890                 1.1038
 Frc consts  --      5.5993                 5.8293                 6.0640
 IR Inten    --     54.1560                30.2307                 4.0545

                     76                     77                     78
                      A                      A                      A
 Frequencies --   3102.3041              3138.8449              3143.9138
 Red. masses --      1.0849                 1.0572                 1.0583
 Frc consts  --      6.1522                 6.1366                 6.1634
 IR Inten    --      9.6895                 3.1784                14.1223

                     79                     80                     81
                      A                      A                      A
 Frequencies --   3158.7694              3217.8069              3229.3826
 Red. masses --      1.0914                 1.1122                 1.1159
 Frc consts  --      6.4162                 6.7852                 6.8564
 IR Inten    --     10.7027                 0.0613                23.9949

 - Thermochemistry -
 -------------------
 Temperature   298.150 Kelvin.  Pressure   1.00000 Atm.
 Atom     1 has atomic number 30 and mass  63.92915

 Molecular mass:   754.02693 amu.
 Principal axes and moments of inertia in atomic units:
                           1         2         3
     Eigenvalues --  ******************************
           X            0.64483   0.63169  -0.43031
           Y            0.49497   0.08387   0.86485
           Z           -0.58241   0.77067   0.25858
 This molecule is an asymmetric top.
 Rotational symmetry number  1.
 Warning -- assumption of classical behavior for rotation
           may cause significant error
 Rotational temperatures (Kelvin)      0.00343     0.00054     0.00050
 Rotational constants (GHZ):           0.07141     0.01122     0.01035
 Zero-point vibrational energy     486929.4 (Joules/Mol)
                                  116.37891 (Kcal/Mol)
 Warning -- explicit consideration of  34 degrees of freedom as
           vibrations may cause significant error
 Vibrational temperatures:      6.91    10.79    19.12    21.60    36.35
          (Kelvin)             60.31    64.32    88.67   106.18   112.96
                              125.67   173.03   184.70   190.07   209.35
                              248.63   291.45   304.64   311.84   366.12
                              368.12   378.85   398.84   420.14   446.81
                              506.24   585.85   586.89   590.47   681.01
                              706.73   712.87   728.73   846.35   931.23
                              947.06  1021.77  1143.62  1192.08  1246.72
                             1347.97  1354.61  1395.63  1418.40  1462.68
                             1475.75  1499.21  1502.91  1507.72  1541.08
                             1570.04  1586.17  1609.06  1651.29  1682.96
                             1723.39  1802.76  1815.24  1855.64  1867.92
                             1885.89  1934.86  1969.62  1992.20  2080.93
                             2110.02  2116.75  2162.98  2192.35  2467.96
                             2595.79  4213.02  4308.47  4336.76  4393.31
                             4463.52  4516.10  4523.39  4544.76  4629.71
                             4646.36

 Zero-point correction=                           0.185462 (Hartree/Particle)
 Thermal correction to Energy=                    0.208900
 Thermal correction to Enthalpy=                  0.209845
 Thermal correction to Gibbs Free Energy=         0.118338
 Sum of electronic and zero-point Energies=          -4652.901435
 Sum of electronic and thermal Energies=             -4652.877996
 Sum of electronic and thermal Enthalpies=           -4652.877052
 Sum of electronic and thermal Free Energies=        -4652.968559

                     E (Thermal)             CV                S
                      KCal/Mol        Cal/Mol-Kelvin    Cal/Mol-Kelvin
 Total                  131.087             76.396            192.593
 Electronic               0.000              0.000              0.000
 Translational            0.889              2.981             45.740
 Rotational               0.889              2.981             41.779
 Vibrational            129.310             70.435            105.074
 Vibration     1          0.593              1.987              9.469
 Vibration     2          0.593              1.987              8.582
 Vibration     3          0.593              1.987              7.446
 Vibration     4          0.593              1.986              7.203
 Vibration     5          0.593              1.985              6.170
 Vibration     6          0.595              1.980              5.166
 Vibration     7          0.595              1.980              5.039
 Vibration     8          0.597              1.973              4.404
 Vibration     9          0.599              1.966              4.049
 Vibration    10          0.600              1.964              3.928
 Vibration    11          0.601              1.958              3.719
 Vibration    12          0.609              1.932              3.096
 Vibration    13          0.611              1.925              2.970
 Vibration    14          0.612              1.921              2.915
 Vibration    15          0.617              1.908              2.730
 Vibration    16          0.626              1.876              2.405
 Vibration    17          0.639              1.836              2.110
 Vibration    18          0.643              1.823              2.029
 Vibration    19          0.646              1.816              1.986
 Vibration    20          0.665              1.755              1.699
 Vibration    21          0.666              1.753              1.690
 Vibration    22          0.670              1.740              1.640
 Vibration    23          0.678              1.716              1.551
 Vibration    24          0.687              1.689              1.462
 Vibration    25          0.699              1.654              1.359
 Vibration    26          0.728              1.571              1.158
 Vibration    27          0.772              1.455              0.937
 Vibration    28          0.772              1.453              0.934
 Vibration    29          0.775              1.448              0.925
 Vibration    30          0.830              1.309              0.728
 Vibration    31          0.847              1.270              0.680
 Vibration    32          0.851              1.260              0.670
 Vibration    33          0.862              1.236              0.642
 Vibration    34          0.945              1.057              0.470

 Optimization completed on the basis of negligible forces.
    -- Stationary point found.
 Normal termination of Gaussian 16 at Thu Jul  6 17:23:37 2023.
