 Gaussian 16, Revision B.01,
 Gaussian 16:  ES64L-G16RevB.01 20-Dec-2017

 ----------------------------------------------------------------------
 # opt=(calcall,tight,cartesian) freq b3lyp/gen nosymm scf=(qc,maxcycle
 =1024) pseudo=read
 ----------------------------------------------------------------------

 -------------------------------------
 paddle_new_AGC_TEABr_opt_freq_6_31Gdp
 -------------------------------------
 Symbolic Z-matrix:
 Charge =  0 Multiplicity = 1

 SCF Done:  E(RB3LYP) =  -4653.09656370     a.u. after    9 cycles
 SCF Done:  E(RB3LYP) =  -4653.10451530     a.u. after   11 cycles
 SCF Done:  E(RB3LYP) =  -4653.10508343     a.u. after    9 cycles
 SCF Done:  E(RB3LYP) =  -4653.10520974     a.u. after    9 cycles
 SCF Done:  E(RB3LYP) =  -4653.10524667     a.u. after    7 cycles
 SCF Done:  E(RB3LYP) =  -4653.10526496     a.u. after   10 cycles
 SCF Done:  E(RB3LYP) =  -4653.10528024     a.u. after    5 cycles
 SCF Done:  E(RB3LYP) =  -4653.10528950     a.u. after    9 cycles
 SCF Done:  E(RB3LYP) =  -4653.10529819     a.u. after    7 cycles
 SCF Done:  E(RB3LYP) =  -4653.10529223     a.u. after   11 cycles
 SCF Done:  E(RB3LYP) =  -4653.10538082     a.u. after    9 cycles
 SCF Done:  E(RB3LYP) =  -4653.10537772     a.u. after   11 cycles
 SCF Done:  E(RB3LYP) =  -4653.10538443     a.u. after    8 cycles
 SCF Done:  E(RB3LYP) =  -4653.10537987     a.u. after   11 cycles
 SCF Done:  E(RB3LYP) =  -4653.10538507     a.u. after    5 cycles
 SCF Done:  E(RB3LYP) =  -4653.10538544     a.u. after    6 cycles
 SCF Done:  E(RB3LYP) =  -4653.10538562     a.u. after    3 cycles
 SCF Done:  E(RB3LYP) =  -4653.10538563     a.u. after    2 cycles
 SCF Done:  E(RB3LYP) =  -4653.10538562     a.u. after    2 cycles
 Optimization completed on the basis of negligible forces.
    -- Stationary point found.
 Normal termination of Gaussian 16 at Tue Aug  1 09:14:35 2023.

 ------------------------------------------------------------------
 #N Geom=AllCheck Guess=TCheck SCRF=Check GenChk RB3LYP/ChkBas Freq
 ------------------------------------------------------------------

 Structure from the checkpoint file:  "paddle_new_AGC_TEABr_opt_freq_6_31Gdp.chk"
 -------------------------------------
 paddle_new_AGC_TEABr_opt_freq_6_31Gdp
 -------------------------------------
 Charge =  0 Multiplicity = 1

                          Input orientation:
 ---------------------------------------------------------------------
 Center     Atomic      Atomic             Coordinates (Angstroms)
 Number     Number       Type             X           Y           Z
 ---------------------------------------------------------------------
      1         30           0       -4.694489   -2.528905    2.326317
      2          8           0       -4.600022   -0.931734    3.631360
      3          8           0       -2.343768   -0.876075    3.542228
      4          8           0       -3.771400   -1.279734    0.828231
      5          8           0       -1.523254   -1.114622    0.679328
      6          6           0       -3.461226   -0.468815    3.942742
      7          6           0       -2.703539   -0.842639    0.321243
      8         30           0       -1.412369   -2.394958    2.252414
      9          8           0       -2.284181   -3.987352    0.982791
     10          8           0       -4.539354   -4.115561    1.014246
     11          8           0       -1.331196   -3.677979    3.798702
     12          8           0       -3.593209   -3.694425    3.770586
     13          6           0       -3.384903   -4.484776    0.641370
     14          6           0       -2.467582   -4.041605    4.218740
     15          1           0       -3.455408    0.383834    4.642316
     16          1           0       -2.790739   -0.146153   -0.527563
     17          1           0       -3.347035   -5.335536   -0.059501
     18          1           0       -2.451967   -4.740511    5.069891
     19          6           0       -7.533844   -1.751514    3.144391
     20          6           0       -8.925190   -1.779770    3.209727
     21          6           0       -9.615492   -2.737870    2.465207
     22          6           0       -8.889458   -3.635442    1.680343
     23          6           0       -7.499316   -3.544901    1.666524
     24          7           0       -6.834486   -2.619084    2.386057
     25          1           0      -10.700185   -2.784227    2.496111
     26          1           0       -6.942948   -1.030371    3.700081
     27          1           0       -9.449248   -1.063042    3.832903
     28          1           0       -9.385065   -4.395750    1.086214
     29          1           0       -6.881618   -4.214494    1.076539
     30          6           0        3.815465    5.745503    1.744190
     31          6           0        3.480586    4.458568    1.875930
     32          6           0        3.244010    3.519749    0.731238
     33          8           0        2.011547    2.831326    0.970375
     34          6           0        1.722488    1.820208    0.014928
     35          6           0        2.331365    0.471461    0.372261
     36          6           0        2.145873   -0.601933   -0.712865
     37          8           0        1.629068   -0.113394    1.521157
     38          1           0        4.013902    6.374480    2.607960
     39          1           0        3.907608    6.210331    0.764608
     40          1           0        3.381723    4.018428    2.868119
     41          1           0        4.075314    2.802713    0.650534
     42          1           0        3.204289    4.056196   -0.226731
     43          1           0        2.101278    2.090663   -0.980577
     44          1           0        0.632086    1.716423   -0.014226
     45          1           0        3.379409    0.578202    0.660048
     46          1           0        3.074570   -0.867363   -1.213874
     47          1           0        1.391736   -0.329168   -1.455769
     48          7           0        9.323654    7.878593   -9.418327
     49          6           0        8.775192    8.666291  -10.627481
     50          6           0        7.270430    8.622886  -10.872553
     51          1           0        9.313044    8.270702  -11.501210
     52          1           0        9.078220    9.701899  -10.450984
     53          1           0        7.103577    9.157016  -11.813418
     54          1           0        6.883739    7.613699  -11.013723
     55          1           0        6.683343    9.128889  -10.100249
     56          6           0        8.391804    8.049291   -8.231660
     57          6           0        8.839774    7.404936   -6.922216
     58          1           0        7.428152    7.640829   -8.531655
     59          1           0        8.266006    9.128533   -8.103645
     60          1           0        8.060745    7.595195   -6.177194
     61          1           0        8.950718    6.321056   -7.006041
     62          1           0        9.770233    7.824714   -6.532814
     63          6           0       10.688373    8.483285   -9.054888
     64          6           0       11.654868    8.714255  -10.214541
     65          1           0       11.128756    7.801136   -8.326361
     66          1           0       10.466507    9.425674   -8.544057
     67          1           0       12.641714    8.907473   -9.780939
     68          1           0       11.730791    7.864246  -10.899138
     69          1           0       11.379340    9.583125  -10.815579
     70          6           0        9.559677    6.396005   -9.755568
     71          6           0        8.331274    5.543955  -10.042216
     72          1           0       10.119726    5.997221   -8.907378
     73          1           0       10.186439    6.391655  -10.656259
     74          1           0        8.684305    4.510323  -10.113993
     75          1           0        7.563082    5.575454   -9.262716
     76          1           0        7.896991    5.784870  -11.013421
     77         35           0        4.447759    1.580954   -2.517725
     78          6           0        1.276141   -1.365691    1.250469
     79          8           0        0.703833   -2.098671    2.049802
     80          8           0        1.639281   -1.750510    0.027585
 ---------------------------------------------------------------------

 SCF Done:  E(RB3LYP) =  -4653.10538562     a.u. after    1 cycles

 Alpha  occ. eigenvalues -- -482.48265 -61.56713 -56.13449 -56.13428 -56.13418
 Alpha  occ. eigenvalues --  -19.16675 -19.16494 -19.11291 -19.10208 -19.09368
 Alpha  occ. eigenvalues --  -19.09355 -19.09322 -19.09134 -19.09047 -19.08929
 Alpha  occ. eigenvalues --  -19.08562 -19.08525 -14.56429 -14.36416 -10.35352
 Alpha  occ. eigenvalues --  -10.35117 -10.34882 -10.34424 -10.33649 -10.29371
 Alpha  occ. eigenvalues --  -10.28913 -10.28527 -10.28130 -10.25776 -10.25604
 Alpha  occ. eigenvalues --  -10.25587 -10.25533 -10.23118 -10.23112 -10.21836
 Alpha  occ. eigenvalues --  -10.21036 -10.20574 -10.20569 -10.20416 -10.18019
 Alpha  occ. eigenvalues --  -10.17983 -10.15203 -10.14559  -8.33680  -6.34491
 Alpha  occ. eigenvalues --   -6.34469  -6.34460  -2.46594  -2.46589  -2.46582
 Alpha  occ. eigenvalues --   -2.46564  -2.46563  -1.12515  -1.11424  -1.02320
 Alpha  occ. eigenvalues --   -1.01856  -1.01619  -1.01396  -1.01039  -1.00420
 Alpha  occ. eigenvalues --   -0.98329  -0.95977  -0.93583  -0.93291  -0.93097
 Alpha  occ. eigenvalues --   -0.93076  -0.89749  -0.89601  -0.89183  -0.84233
 Alpha  occ. eigenvalues --   -0.81602  -0.77337  -0.76774  -0.76336  -0.75927
 Alpha  occ. eigenvalues --   -0.75287  -0.73935  -0.68522  -0.66711  -0.64335
 Alpha  occ. eigenvalues --   -0.63880  -0.62896  -0.62846  -0.62815  -0.60975
 Alpha  occ. eigenvalues --   -0.58742  -0.58493  -0.58377  -0.57765  -0.57216
 Alpha  occ. eigenvalues --   -0.56990  -0.56724  -0.56354  -0.56061  -0.55809
 Alpha  occ. eigenvalues --   -0.55789  -0.55697  -0.55391  -0.55100  -0.55040
 Alpha  occ. eigenvalues --   -0.54932  -0.54786  -0.54221  -0.53568  -0.53485
 Alpha  occ. eigenvalues --   -0.53422  -0.52145  -0.51504  -0.50995  -0.50792
 Alpha  occ. eigenvalues --   -0.50074  -0.49881  -0.49687  -0.49659  -0.49150
 Alpha  occ. eigenvalues --   -0.49132  -0.48541  -0.47652  -0.47600  -0.47344
 Alpha  occ. eigenvalues --   -0.46827  -0.46584  -0.46002  -0.45652  -0.45183
 Alpha  occ. eigenvalues --   -0.45176  -0.44335  -0.44046  -0.43915  -0.43326
 Alpha  occ. eigenvalues --   -0.43109  -0.42735  -0.42680  -0.41789  -0.41568
 Alpha  occ. eigenvalues --   -0.41511  -0.41206  -0.41002  -0.40595  -0.39264
 Alpha  occ. eigenvalues --   -0.38822  -0.38721  -0.37707  -0.37346  -0.37190
 Alpha  occ. eigenvalues --   -0.37150  -0.36785  -0.35482  -0.34003  -0.33655
 Alpha  occ. eigenvalues --   -0.33413  -0.31605  -0.30827  -0.30339  -0.29153
 Alpha  occ. eigenvalues --   -0.27837  -0.27454  -0.27294  -0.27229  -0.26638
 Alpha  occ. eigenvalues --   -0.25705  -0.25551  -0.25468  -0.24578  -0.24299
 Alpha  occ. eigenvalues --   -0.24211  -0.23638  -0.23483  -0.23425  -0.23156
 Alpha  occ. eigenvalues --   -0.23043  -0.21490  -0.20750  -0.13111  -0.12821
 Alpha  occ. eigenvalues --   -0.12798
 Alpha virt. eigenvalues --   -0.09025  -0.07306  -0.07128  -0.06705  -0.04999
 Alpha virt. eigenvalues --   -0.04830  -0.04770  -0.03862  -0.03436  -0.03164
 Alpha virt. eigenvalues --   -0.02761  -0.02467  -0.01209  -0.01044  -0.00344

 Mulliken charges:
               1
     1  Zn   0.712562
     2  O   -0.509699
     3  O   -0.446722
     4  O   -0.431702
     5  O   -0.498016
     6  C    0.470239
     7  C    0.458603
     8  Zn   0.614144
     9  O   -0.449329
    10  O   -0.508430
    11  O   -0.409026
    12  O   -0.447457
    13  C    0.468082
    14  C    0.427664
    15  H    0.084840
    16  H    0.084995
    17  H    0.082882
    18  H    0.087009
    19  C   -0.299873
    20  C    0.066667
    21  C   -0.561410
    22  C    0.067721
    23  C   -0.296767
    24  N    0.205859
    25  H    0.140681
    26  H    0.198535
    27  H    0.141219
    28  H    0.140967
    29  H    0.198115
    30  C   -0.370254
    31  C    0.165791
    32  C   -0.324238
    33  O   -0.338942
    34  C   -0.316900
    35  C    0.283238
    36  C   -0.163577
    37  O   -0.257973
    38  H    0.122111
    39  H    0.124768
    40  H    0.134098
    41  H    0.158320
    42  H    0.140110
    43  H    0.189866
    44  H    0.142433
    45  H    0.162679
    46  H    0.208469
    47  H    0.161616
    48  N   -0.710876
    49  C    0.077167
    50  C   -0.611711
    51  H    0.190426
    52  H    0.186934
    53  H    0.183909
    54  H    0.174883
    55  H    0.180344
    56  C    0.047927
    57  C   -0.554256
    58  H    0.196664
    59  H    0.189887
    60  H    0.200233
    61  H    0.182685
    62  H    0.171386
    63  C    0.118669
    64  C   -0.536963
    65  H    0.188890
    66  H    0.193586
    67  H    0.187193
    68  H    0.170910
    69  H    0.173944
    70  C    0.029566
    71  C   -0.538948
    72  H    0.188500
    73  H    0.180471
    74  H    0.191458
    75  H    0.182295
    76  H    0.164785
    77  Br  -0.863129
    78  C    0.514464
    79  O   -0.407769
    80  O   -0.257494
 Sum of Mulliken charges =  -0.00000

 Dipole moment (field-independent basis, Debye):
    X=             25.5278    Y=             34.2528    Z=            -40.8626  Tot=             59.1157
 Quadrupole moment (field-independent basis, Debye-Ang):
   XX=            138.1662   YY=             -3.5767   ZZ=            119.9063
   XY=            326.6368   XZ=           -381.2697   YZ=           -324.2856

  Exact polarizability: 455.761  47.037 397.752 -32.356   7.621 372.802
 Approx polarizability: 610.089  27.645 542.262 -19.734  27.032 509.245

                      1                      2                      3
                      A                      A                      A
 Frequencies --      4.9896                 6.7803                10.7916
 Red. masses --      5.6124                 9.5531                28.3102
 Frc consts  --      0.0001                 0.0003                 0.0019
 IR Inten    --      0.4295                 2.0761                 4.8632

                      4                      5                      6
                      A                      A                      A
 Frequencies --     17.3111                24.0002                30.3057
 Red. masses --      3.9116                 4.5909                 7.5922
 Frc consts  --      0.0007                 0.0016                 0.0041
 IR Inten    --      1.9801                 3.5835                 6.5455

                      7                      8                      9
                      A                      A                      A
 Frequencies --     35.9205                40.4623                51.7616
 Red. masses --      6.5581                 3.8625                 5.5570
 Frc consts  --      0.0050                 0.0037                 0.0088
 IR Inten    --      4.4105                 1.8645                 1.4760

                     10                     11                     12
                      A                      A                      A
 Frequencies --     62.1401                77.3416                87.9301
 Red. masses --      8.3941                 5.6134                 5.4260
 Frc consts  --      0.0191                 0.0198                 0.0247
 IR Inten    --      3.0503                11.8935                 6.0070

                     13                     14                     15
                      A                      A                      A
 Frequencies --    120.3910               124.3473               129.1299
 Red. masses --      8.8152                11.3979                 3.8286
 Frc consts  --      0.0753                 0.1038                 0.0376
 IR Inten    --      9.3603                 8.5543                 5.2473

                     16                     17                     18
                      A                      A                      A
 Frequencies --    172.3449               192.4643               214.8915
 Red. masses --      8.3018                 5.1708                29.9400
 Frc consts  --      0.1453                 0.1129                 0.8146
 IR Inten    --     45.6438                 8.5635                 4.1857

                     19                     20                     21
                      A                      A                      A
 Frequencies --    218.3696               259.0112               261.9572
 Red. masses --     15.9720                16.3218                 2.3346
 Frc consts  --      0.4487                 0.6451                 0.0944
 IR Inten    --      0.0240                35.6954                 1.6431

                     22                     23                     24
                      A                      A                      A
 Frequencies --    274.3894               280.1779               285.0204
 Red. masses --     17.8755                 6.0252                15.7141
 Frc consts  --      0.7929                 0.2787                 0.7521
 IR Inten    --     48.2151                23.6837                 0.4626

                     25                     26                     27
                      A                      A                      A
 Frequencies --    305.9783               418.5458               419.7239
 Red. masses --      4.3153                16.0215                15.7825
 Frc consts  --      0.2380                 1.6536                 1.6381
 IR Inten    --      6.5817                40.1317                25.9487

                     28                     29                     30
                      A                      A                      A
 Frequencies --    427.2572               445.4689               488.4454
 Red. masses --      2.9203                 2.5220                 3.0356
 Frc consts  --      0.3141                 0.2949                 0.4267
 IR Inten    --      7.9348                 6.0658                 4.7215

                     31                     32                     33
                      A                      A                      A
 Frequencies --    515.6434               541.0592               541.2973
 Red. masses --     16.0268                14.4156                 5.6015
 Frc consts  --      2.5107                 2.4864                 0.9670
 IR Inten    --     21.3812                88.4457                 6.3219

                     34                     35                     36
                      A                      A                      A
 Frequencies --    632.7016               695.0460               726.5715
 Red. masses --      1.6094                 4.4022                 6.4919
 Frc consts  --      0.3796                 1.2530                 2.0192
 IR Inten    --      4.8207                45.9658                34.4022

                     37                     38                     39
                      A                      A                      A
 Frequencies --    789.1449               863.8859               917.7872
 Red. masses --     11.8526                 5.3399                 1.6845
 Frc consts  --      4.3489                 2.3480                 0.8360
 IR Inten    --     61.4110                15.2859                18.1444

                     40                     41                     42
                      A                      A                      A
 Frequencies --    930.8680               947.6223               957.3123
 Red. masses --      1.3335                 1.8384                 3.5211
 Frc consts  --      0.6808                 0.9727                 1.9012
 IR Inten    --     58.3029                 2.2212                21.5866

                     43                     44                     45
                      A                      A                      A
 Frequencies --    974.9030               996.1049              1028.3588
 Red. masses --      2.1151                 2.6133                13.5370
 Frc consts  --      1.1844                 1.5278                 8.4346
 IR Inten    --      0.9105                12.4126                66.6720

                     46                     47                     48
                      A                      A                      A
 Frequencies --   1029.5600              1039.2369              1053.8257
 Red. masses --      1.2323                15.7373                 3.2028
 Frc consts  --      0.7696                10.0140                 2.0957
 IR Inten    --     30.6026                21.9751                 7.9114

                     49                     50                     51
                      A                      A                      A
 Frequencies --   1056.6934              1071.6422              1080.2964
 Red. masses --     15.4821                 5.7809                 5.3574
 Frc consts  --     10.1854                 3.9115                 3.6838
 IR Inten    --     62.2238               534.7677               271.9125

                     52                     53                     54
                      A                      A                      A
 Frequencies --   1100.5056              1128.0864              1139.7756
 Red. masses --      6.1038                 3.4837                 2.9700
 Frc consts  --      4.3555                 2.6120                 2.2733
 IR Inten    --    170.6131                96.9460                70.7530

                     55                     56                     57
                      A                      A                      A
 Frequencies --   1172.6967              1211.7328              1224.0225
 Red. masses --      1.8438                 1.2696                 1.8657
 Frc consts  --      1.4940                 1.0983                 1.6469
 IR Inten    --      1.0567                16.0492               139.1641

                     58                     59                     60
                      A                      A                      A
 Frequencies --   1269.1410              1310.1650              1317.0117
 Red. masses --      1.1224                 1.2593                 1.2367
 Frc consts  --      1.0652                 1.2736                 1.2639
 IR Inten    --      2.1821                 8.1153                50.9727

                     61                     62                     63
                      A                      A                      A
 Frequencies --   1343.2598              1363.0164              1402.0668
 Red. masses --      1.3656                 1.2767                 1.2669
 Frc consts  --      1.4517                 1.3974                 1.4673
 IR Inten    --     48.7804                 9.4994                10.2490

                     64                     65                     66
                      A                      A                      A
 Frequencies --   1430.7957              1435.6468              1464.9956
 Red. masses --      1.3703                 1.9644                 1.2229
 Frc consts  --      1.6528                 2.3855                 1.5464
 IR Inten    --     21.5404                84.7397                14.8637

                     67                     68                     69
                      A                      A                      A
 Frequencies --   1489.6439              1501.0186              1518.4896
 Red. masses --      1.1311                 1.0925                 1.0914
 Frc consts  --      1.4788                 1.4503                 1.4827
 IR Inten    --      9.3644                18.4100                 6.1001

                     70                     71                     72
                      A                      A                      A
 Frequencies --   1712.7926              1777.8940              3003.9940
 Red. masses --      4.6614                12.6620                 1.0604
 Frc consts  --      8.0570                23.5812                 5.6380
 IR Inten    --      9.8419              1332.5777                26.0683

                     73                     74                     75
                      A                      A                      A
 Frequencies --   3023.6370              3047.4218              3094.9442
 Red. masses --      1.0615                 1.1016                 1.1038
 Frc consts  --      5.7181                 6.0274                 6.2295
 IR Inten    --     24.0701                21.7259                 6.8461

                     76                     77                     78
                      A                      A                      A
 Frequencies --   3097.8992              3123.3617              3140.4212
 Red. masses --      1.0664                 1.0880                 1.0577
 Frc consts  --      6.0299                 6.2533                 6.1459
 IR Inten    --      9.4199                21.1893                17.1897

                     79                     80                     81
                      A                      A                      A
 Frequencies --   3158.9760              3189.4824              3225.0996
 Red. masses --      1.0919                 1.1051                 1.1155
 Frc consts  --      6.4200                 6.6235                 6.8362
 IR Inten    --      7.9189                 1.2067                25.6601

 - Thermochemistry -
 -------------------
 Temperature   298.150 Kelvin.  Pressure   1.00000 Atm.
 Atom     1 has atomic number 30 and mass  63.92915

 Molecular mass:   754.02693 amu.
 Principal axes and moments of inertia in atomic units:
                           1         2         3
     Eigenvalues --  ******************************
           X            0.68199   0.66616  -0.30188
           Y            0.49239  -0.11302   0.86300
           Z           -0.54078   0.73720   0.40509
 This molecule is an asymmetric top.
 Rotational symmetry number  1.
 Warning -- assumption of classical behavior for rotation
           may cause significant error
 Rotational temperatures (Kelvin)      0.00548     0.00052     0.00051
 Rotational constants (GHZ):           0.11424     0.01083     0.01057
 Zero-point vibrational energy     492234.6 (Joules/Mol)
                                  117.64690 (Kcal/Mol)
 Warning -- explicit consideration of  33 degrees of freedom as
           vibrations may cause significant error
 Vibrational temperatures:      7.18     9.76    15.53    24.91    34.53
          (Kelvin)             43.60    51.68    58.22    74.47    89.41
                              111.28   126.51   173.22   178.91   185.79
                              247.97   276.91   309.18   314.19   372.66
                              376.90   394.79   403.11   410.08   440.23
                              602.19   603.89   614.73   640.93   702.76
                              741.90   778.46   778.81   910.32  1000.02
                             1045.37  1135.40  1242.94  1320.49  1339.31
                             1363.42  1377.36  1402.67  1433.17  1479.58
                             1481.31  1495.23  1516.22  1520.35  1541.85
                             1554.31  1583.38  1623.06  1639.88  1687.25
                             1743.41  1761.10  1826.01  1885.04  1894.89
                             1932.65  1961.08  2017.26  2058.60  2065.58
                             2107.80  2143.27  2159.63  2184.77  2464.33
                             2557.99  4322.08  4350.34  4384.56  4452.93
                             4457.19  4493.82  4518.37  4545.06  4588.95
                             4640.20

 Zero-point correction=                           0.187482 (Hartree/Particle)
 Thermal correction to Energy=                    0.210840
 Thermal correction to Enthalpy=                  0.211784
 Thermal correction to Gibbs Free Energy=         0.118852
 Sum of electronic and zero-point Energies=          -4652.917903
 Sum of electronic and thermal Energies=             -4652.894546
 Sum of electronic and thermal Enthalpies=           -4652.893602
 Sum of electronic and thermal Free Energies=        -4652.986533

                     E (Thermal)             CV                S
                      KCal/Mol        Cal/Mol-Kelvin    Cal/Mol-Kelvin
 Total                  132.304             75.003            195.591
 Electronic               0.000              0.000              0.000
 Translational            0.889              2.981             45.740
 Rotational               0.889              2.981             41.326
 Vibrational            130.527             69.041            108.525
 Vibration     1          0.593              1.987              9.392
 Vibration     2          0.593              1.987              8.783
 Vibration     3          0.593              1.987              7.860
 Vibration     4          0.593              1.986              6.921
 Vibration     5          0.593              1.985              6.272
 Vibration     6          0.594              1.984              5.809
 Vibration     7          0.594              1.982              5.472
 Vibration     8          0.594              1.981              5.236
 Vibration     9          0.596              1.977              4.749
 Vibration    10          0.597              1.972              4.388
 Vibration    11          0.599              1.964              3.957
 Vibration    12          0.601              1.958              3.706
 Vibration    13          0.609              1.932              3.094
 Vibration    14          0.610              1.929              3.032
 Vibration    15          0.612              1.924              2.959
 Vibration    16          0.626              1.877              2.410
 Vibration    17          0.634              1.850              2.204
 Vibration    18          0.645              1.818              2.002
 Vibration    19          0.646              1.813              1.973
 Vibration    20          0.668              1.748              1.668
 Vibration    21          0.669              1.742              1.649
 Vibration    22          0.677              1.721              1.568
 Vibration    23          0.680              1.710              1.533
 Vibration    24          0.683              1.701              1.503
 Vibration    25          0.696              1.662              1.384
 Vibration    26          0.781              1.430              0.897
 Vibration    27          0.782              1.427              0.893
 Vibration    28          0.789              1.411              0.868
 Vibration    29          0.805              1.371              0.810
 Vibration    30          0.844              1.276              0.688
 Vibration    31          0.871              1.215              0.620
 Vibration    32          0.896              1.159              0.563
 Vibration    33          0.896              1.159              0.563

 Optimization completed on the basis of negligible forces.
    -- Stationary point found.
 Normal termination of Gaussian 16 at Tue Aug  1 09:39:24 2023.
