 Gaussian 16, Revision C.01,
 Gaussian 16:  ES64L-G16RevC.01  3-Jul-2019

 ----------------------------------------------------------------------
 # opt=(calcall,tight,cartesian) freq b3lyp/gen nosymm scf=(qc,maxcycle
 =1024) pseudo=read
 ----------------------------------------------------------------------

 ----------------------------------
 paddle_new_AGE_opt_freq_reposition
 ----------------------------------
 Symbolic Z-matrix:
 Charge =  0 Multiplicity = 1

 SCF Done:  E(RB3LYP) =  -1521.47024103     a.u. after    7 cycles
 SCF Done:  E(RB3LYP) =  -1521.47142862     a.u. after    9 cycles
 SCF Done:  E(RB3LYP) =  -1521.47176406     a.u. after   10 cycles
 SCF Done:  E(RB3LYP) =  -1521.47196296     a.u. after   11 cycles
 SCF Done:  E(RB3LYP) =  -1521.47208044     a.u. after    9 cycles
 SCF Done:  E(RB3LYP) =  -1521.47217416     a.u. after    9 cycles
 SCF Done:  E(RB3LYP) =  -1521.47225486     a.u. after    9 cycles
 SCF Done:  E(RB3LYP) =  -1521.47233590     a.u. after    9 cycles
 SCF Done:  E(RB3LYP) =  -1521.47240833     a.u. after    9 cycles
 SCF Done:  E(RB3LYP) =  -1521.47247924     a.u. after   11 cycles
 SCF Done:  E(RB3LYP) =  -1521.47327613     a.u. after    5 cycles
 SCF Done:  E(RB3LYP) =  -1521.47325211     a.u. after   11 cycles
 SCF Done:  E(RB3LYP) =  -1521.47327313     a.u. after    4 cycles
 SCF Done:  E(RB3LYP) =  -1521.46950673     a.u. after   11 cycles
 SCF Done:  E(RB3LYP) =  -1521.47327651     a.u. after    2 cycles
 SCF Done:  E(RB3LYP) =  -1521.47327711     a.u. after    4 cycles
 SCF Done:  E(RB3LYP) =  -1521.47327713     a.u. after    2 cycles
 SCF Done:  E(RB3LYP) =  -1521.47327713     a.u. after    2 cycles
 SCF Done:  E(RB3LYP) =  -1521.47327713     a.u. after    2 cycles
 Optimization completed on the basis of negligible forces.
    -- Stationary point found.

 1\1\GINC-GPU10\FOpt\RB3LYP\Gen\C15H19N1O10Zn2\X2496A02\04-Jul-2023\0\\
 # opt=(calcall,tight,cartesian) freq b3lyp/gen nosymm scf=(qc,maxcycle
 =1024) pseudo=read\\paddle_new_AGE_opt_freq_reposition\\0,1\Zn,-4.6944
 89,-2.528905,2.326317\O,-4.600022,-0.931734,3.63136\O,-2.3394007506,-0
 .8624276763,3.5287898513\O,-3.7714,-1.279734,0.828231\O,-1.5208243106,
 -1.1092504602,0.692522696\C,-3.461226,-0.468815,3.942742\C,-2.703539,-
 0.842639,0.321243\Zn,-1.4964616885,-2.4355759374,2.2375115915\O,-2.280
 2541749,-3.981554541,0.971999868\O,-4.539354,-4.115561,1.014246\O,-1.3

 Normal termination of Gaussian 16 at Tue Jul  4 15:10:13 2023.

 ------------------------------------------------------------------
 #N Geom=AllCheck Guess=TCheck SCRF=Check GenChk RB3LYP/ChkBas Freq
 ------------------------------------------------------------------

 Structure from the checkpoint file:  "paddle_new_AGE_opt_freq_reposition.chk"
 ----------------------------------
 paddle_new_AGE_opt_freq_reposition
 ----------------------------------
 Charge =  0 Multiplicity = 1

                          Input orientation:
 ---------------------------------------------------------------------
 Center     Atomic      Atomic             Coordinates (Angstroms)
 Number     Number       Type             X           Y           Z
 ---------------------------------------------------------------------
      1         30           0       -4.694489   -2.528905    2.326317
      2          8           0       -4.600022   -0.931734    3.631360
      3          8           0       -2.339401   -0.862428    3.528790
      4          8           0       -3.771400   -1.279734    0.828231
      5          8           0       -1.520824   -1.109250    0.692523
      6          6           0       -3.461226   -0.468815    3.942742
      7          6           0       -2.703539   -0.842639    0.321243
      8         30           0       -1.496462   -2.435576    2.237512
      9          8           0       -2.280254   -3.981555    0.972000
     10          8           0       -4.539354   -4.115561    1.014246
     11          8           0       -1.332783   -3.672906    3.800564
     12          8           0       -3.593209   -3.694425    3.770586
     13          6           0       -3.384903   -4.484776    0.641370
     14          6           0       -2.467582   -4.041605    4.218740
     15          1           0       -3.455408    0.383834    4.642316
     16          1           0       -2.790739   -0.146153   -0.527563
     17          1           0       -3.347035   -5.335536   -0.059501
     18          1           0       -2.451967   -4.740511    5.069891
     19          6           0       -7.533844   -1.751514    3.144391
     20          6           0       -8.925190   -1.779770    3.209727
     21          6           0       -9.615492   -2.737870    2.465207
     22          6           0       -8.889458   -3.635442    1.680343
     23          6           0       -7.499316   -3.544901    1.666524
     24          7           0       -6.834486   -2.619084    2.386057
     25          1           0      -10.700185   -2.784227    2.496111
     26          1           0       -6.942948   -1.030371    3.700081
     27          1           0       -9.449248   -1.063042    3.832903
     28          1           0       -9.385065   -4.395750    1.086214
     29          1           0       -6.881618   -4.214494    1.076539
     30          6           0       -0.077786    1.016863    7.109599
     31          6           0        0.881936    0.961315    6.182990
     32          6           0        0.627285    0.976091    4.705492
     33          8           0        1.290901   -0.142847    4.114268
     34          6           0        1.259024   -0.125145    2.698574
     35          6           0        1.715785   -1.472673    2.210696
     36          6           0        1.412488   -1.951968    0.854559
     37          8           0        0.698845   -2.490227    1.997873
     38          1           0        0.155647    1.034548    8.170251
     39          1           0       -1.130608    1.042927    6.838042
     40          1           0        1.929423    0.917014    6.479310
     41          1           0        1.029169    1.907475    4.267428
     42          1           0       -0.448700    0.926436    4.487636
     43          1           0        1.942175    0.650178    2.307144
     44          1           0        0.249994    0.087587    2.318223
     45          1           0        2.588813   -1.873550    2.723355
     46          1           0        2.075187   -2.671398    0.379499
     47          1           0        0.792320   -1.347679    0.197974
 ---------------------------------------------------------------------

 SCF Done:  E(RB3LYP) =  -1521.47327713     a.u. after    1 cycles

 Alpha  occ. eigenvalues --  -19.19641 -19.15620 -19.14019 -19.13527 -19.13421
 Alpha  occ. eigenvalues --  -19.13311 -19.12998 -19.12915 -19.12905 -19.12744
 Alpha  occ. eigenvalues --  -14.39087 -10.30316 -10.29805 -10.29662 -10.29274
 Alpha  occ. eigenvalues --  -10.26301 -10.25653 -10.25641 -10.25477 -10.24408
 Alpha  occ. eigenvalues --  -10.24151 -10.23282 -10.22948 -10.22940 -10.19085
 Alpha  occ. eigenvalues --  -10.18338  -1.09822  -1.06665  -1.05944  -1.05728
 Alpha  occ. eigenvalues --   -1.05435  -1.04075  -0.98572  -0.97990  -0.97395
 Alpha  occ. eigenvalues --   -0.97271  -0.97052  -0.83989  -0.79805  -0.79551
 Alpha  occ. eigenvalues --   -0.75183  -0.69493  -0.66831  -0.66303  -0.65873
 Alpha  occ. eigenvalues --   -0.62603  -0.61999  -0.61811  -0.60864  -0.60562
 Alpha  occ. eigenvalues --   -0.60386  -0.60180  -0.59810  -0.59624  -0.59606
 Alpha  occ. eigenvalues --   -0.59499  -0.58877  -0.57670  -0.57482  -0.56315
 Alpha  occ. eigenvalues --   -0.56160  -0.54912  -0.53187  -0.51614  -0.51219
 Alpha  occ. eigenvalues --   -0.50105  -0.49570  -0.48953  -0.47948  -0.47558
 Alpha  occ. eigenvalues --   -0.47520  -0.47267  -0.46776  -0.46437  -0.46045
 Alpha  occ. eigenvalues --   -0.45506  -0.45250  -0.44047  -0.43600  -0.43169
 Alpha  occ. eigenvalues --   -0.42994  -0.42880  -0.41863  -0.41465  -0.41300
 Alpha  occ. eigenvalues --   -0.39634  -0.39545  -0.39308  -0.38422  -0.36160
 Alpha  occ. eigenvalues --   -0.35075  -0.34207  -0.33186  -0.32765  -0.32550
 Alpha  occ. eigenvalues --   -0.31064  -0.30075  -0.29757  -0.29713  -0.29535
 Alpha  occ. eigenvalues --   -0.28842  -0.28388  -0.28350  -0.27840  -0.27627
 Alpha  occ. eigenvalues --   -0.27536  -0.27393  -0.27273  -0.25928  -0.25642
 Alpha virt. eigenvalues --   -0.07212  -0.04898  -0.00880  -0.00461   0.00203
 Alpha virt. eigenvalues --    0.00717   0.01066   0.01444   0.01535   0.01706
 Alpha virt. eigenvalues --    0.01833   0.02155   0.02460   0.02532   0.03002

 Mulliken charges:
               1
     1  Zn   0.695101
     2  O   -0.479514
     3  O   -0.467018
     4  O   -0.424260
     5  O   -0.511086
     6  C    0.468631
     7  C    0.461267
     8  Zn   0.451438
     9  O   -0.439947
    10  O   -0.493867
    11  O   -0.409669
    12  O   -0.440674
    13  C    0.467788
    14  C    0.445847
    15  H    0.082871
    16  H    0.095520
    17  H    0.093560
    18  H    0.096535
    19  C   -0.320012
    20  C    0.108053
    21  C   -0.569953
    22  C    0.071144
    23  C   -0.324864
    24  N    0.224810
    25  H    0.146619
    26  H    0.194605
    27  H    0.145421
    28  H    0.145722
    29  H    0.195792
    30  C   -0.294096
    31  C    0.088667
    32  C   -0.260423
    33  O   -0.308929
    34  C   -0.098771
    35  C    0.064429
    36  C   -0.104802
    37  O   -0.244859
    38  H    0.134923
    39  H    0.130221
    40  H    0.133759
    41  H    0.120129
    42  H    0.145141
    43  H    0.129349
    44  H    0.153543
    45  H    0.162888
    46  H    0.150995
    47  H    0.187979
 Sum of Mulliken charges =   0.00000

 Dipole moment (field-independent basis, Debye):
    X=             -4.1435    Y=              1.9753    Z=             -1.5106  Tot=              4.8324
 Quadrupole moment (field-independent basis, Debye-Ang):
   XX=            -90.0804   YY=           -177.1879   ZZ=           -177.2849
   XY=             14.3384   XZ=            -15.1967   YZ=             12.7220

  Exact polarizability:     302.778      11.823     212.953      -6.879      29.439     231.217
 Approx polarizability:     424.941       7.146     302.835     -18.984      36.577     317.417

                      1                      2                      3
                      A                      A                      A
 Frequencies --      4.9411                14.0991                20.1769
 Red. masses --      5.1733                 5.6497                 4.7561
 Frc consts  --      0.0001                 0.0007                 0.0011
 IR Inten    --      0.3167                 0.1233                 0.3318

                      4                      5                      6
                      A                      A                      A
 Frequencies --     41.2453                59.5600                64.7359
 Red. masses --      3.0268                 3.9227                 3.2267
 Frc consts  --      0.0030                 0.0082                 0.0080
 IR Inten    --      2.2031                 1.1324                 1.0651

                      7                      8                      9
                      A                      A                      A
 Frequencies --     97.7676               120.0076               128.1068
 Red. masses --      3.9765                 7.9063                 6.0084
 Frc consts  --      0.0224                 0.0671                 0.0581
 IR Inten    --      1.6477                 8.4029                19.3426

                     10                     11                     12
                      A                      A                      A
 Frequencies --    130.3112               156.2835               183.6804
 Red. masses --      3.5621                 5.8669                 4.6173
 Frc consts  --      0.0356                 0.0844                 0.0918
 IR Inten    --      6.1544                 5.4460                 5.6324

                     13                     14                     15
                      A                      A                      A
 Frequencies --    213.2764               218.3514               224.8679
 Red. masses --     16.4507                14.4312                 5.5376
 Frc consts  --      0.4409                 0.4054                 0.1650
 IR Inten    --     12.3280                 3.3026                21.3310

                     16                     17                     18
                      A                      A                      A
 Frequencies --    260.4991               274.5376               286.1130
 Red. masses --     15.4435                13.5893                10.3125
 Frc consts  --      0.6175                 0.6035                 0.4974
 IR Inten    --     39.4649                35.8317                 1.1927

                     19                     20                     21
                      A                      A                      A
 Frequencies --    290.2572               324.9807               422.5518
 Red. masses --      3.1991                 3.6130                 3.4222
 Frc consts  --      0.1588                 0.2248                 0.3600
 IR Inten    --      7.3538                 0.9621                 5.4150

                     22                     23                     24
                      A                      A                      A
 Frequencies --    424.1200               428.5840               458.5800
 Red. masses --      5.5604                14.5532                 2.6220
 Frc consts  --      0.5893                 1.5750                 0.3249
 IR Inten    --     28.8789                47.4555                 1.6865

                     25                     26                     27
                      A                      A                      A
 Frequencies --    497.7937               517.1820               550.0218
 Red. masses --      2.5274                15.9619                17.1289
 Frc consts  --      0.3690                 2.5155                 3.0531
 IR Inten    --     13.2619                25.4736                79.9292

                     28                     29                     30
                      A                      A                      A
 Frequencies --    651.9823               764.2037               869.3881
 Red. masses --      1.7221                 4.5762                 1.9343
 Frc consts  --      0.4313                 1.5746                 0.8614
 IR Inten    --      2.6537                30.9809                66.4756

                     31                     32                     33
                      A                      A                      A
 Frequencies --    929.6085               940.2663               954.3145
 Red. masses --      2.8527                 1.5282                 1.3353
 Frc consts  --      1.4524                 0.7960                 0.7165
 IR Inten    --     71.3580                20.8905                52.5095

                     34                     35                     36
                      A                      A                      A
 Frequencies --    990.1909               994.4256              1020.7365
 Red. masses --      1.7939                 1.8779                 1.7408
 Frc consts  --      1.0363                 1.0941                 1.0686
 IR Inten    --      4.6248                12.7415                34.8132

                     37                     38                     39
                      A                      A                      A
 Frequencies --   1022.6590              1030.0064              1031.4558
 Red. masses --      3.4732                15.7049                 2.2547
 Frc consts  --      2.1402                 9.8167                 1.4133
 IR Inten    --     19.5064                28.1117                41.4685

                     40                     41                     42
                      A                      A                      A
 Frequencies --   1048.4210              1071.2453              1105.8380
 Red. masses --     15.7826                15.1528                 1.4228
 Frc consts  --     10.2211                10.2452                 1.0251
 IR Inten    --     68.3872               518.7785                 4.3870

                     43                     44                     45
                      A                      A                      A
 Frequencies --   1136.6930              1158.5695              1168.8093
 Red. masses --      4.4390                 1.8754                 1.4630
 Frc consts  --      3.3792                 1.4832                 1.1776
 IR Inten    --    182.6028                33.2093                 3.1351

                     46                     47                     48
                      A                      A                      A
 Frequencies --   1183.3370              1196.9807              1264.1249
 Red. masses --      1.5978                 1.6162                 1.1452
 Frc consts  --      1.3182                 1.3643                 1.0782
 IR Inten    --      2.7567                 3.7715                 5.4244

                     49                     50                     51
                      A                      A                      A
 Frequencies --   1273.2680              1293.5460              1314.4051
 Red. masses --      1.1808                 1.5106                 1.2660
 Frc consts  --      1.1279                 1.4892                 1.2887
 IR Inten    --     13.1388                 7.4761                 0.1614

                     52                     53                     54
                      A                      A                      A
 Frequencies --   1354.3784              1401.8520              1458.7989
 Red. masses --      1.2452                 1.3662                 1.2843
 Frc consts  --      1.3457                 1.5819                 1.6103
 IR Inten    --     35.8778                19.2953                25.0696

                     55                     56                     57
                      A                      A                      A
 Frequencies --   1479.4693              1502.5698              1514.6050
 Red. masses --      1.4930                 1.1039                 1.0805
 Frc consts  --      1.9253                 1.4684                 1.4604
 IR Inten    --      0.9473                 1.1404                 4.2683

                     58                     59                     60
                      A                      A                      A
 Frequencies --   1529.9104              1717.7903              2953.5171
 Red. masses --      1.4141                 4.6394                 1.0669
 Frc consts  --      1.9501                 8.0659                 5.4833
 IR Inten    --      3.1837                 2.6939                31.4774

                     61                     62                     63
                      A                      A                      A
 Frequencies --   2962.5763              3043.1377              3045.8993
 Red. masses --      1.0680                 1.0916                 1.0953
 Frc consts  --      5.5230                 5.9561                 5.9871
 IR Inten    --     91.7306                25.2350                 4.9354

                     64                     65                     66
                      A                      A                      A
 Frequencies --   3132.5327              3149.6616              3163.2728
 Red. masses --      1.0517                 1.0586                 1.0908
 Frc consts  --      6.0806                 6.1872                 6.4306
 IR Inten    --     21.2398                11.4418                 2.6630

                     67                     68                     69
                      A                      A                      A
 Frequencies --   3163.5181              3233.9530              3236.6944
 Red. masses --      1.0914                 1.1212                 1.1159
 Frc consts  --      6.4352                 6.9087                 6.8878
 IR Inten    --     21.9303                 3.3383                18.6102

 - Thermochemistry -
 -------------------
 Temperature   298.150 Kelvin.  Pressure   1.00000 Atm.
 Atom     1 has atomic number 30 and mass  63.92915

 Molecular mass:   500.95919 amu.
 Principal axes and moments of inertia in atomic units:
                           1         2         3
     Eigenvalues --  6649.88423********************
           X            0.95206  -0.28605  -0.10838
           Y            0.26144   0.57697   0.77379
           Z            0.15881   0.76504  -0.62410
 This molecule is an asymmetric top.
 Rotational symmetry number  1.
 Warning -- assumption of classical behavior for rotation
           may cause significant error
 Rotational temperatures (Kelvin)      0.01302     0.00447     0.00384
 Rotational constants (GHZ):           0.27139     0.09313     0.07999
 Zero-point vibrational energy     447829.5 (Joules/Mol)
                                  107.03382 (Kcal/Mol)
 Warning -- explicit consideration of  27 degrees of freedom as
           vibrations may cause significant error
 Vibrational temperatures:      7.11    20.29    29.03    59.34    85.69
          (Kelvin)             93.14   140.67   172.66   184.32   187.49
                              224.86   264.28   306.86   314.16   323.53
                              374.80   395.00   411.65   417.62   467.57
                              607.96   610.21   616.64   659.79   716.21
                              744.11   791.36   938.06  1099.52  1250.86
                             1337.50  1352.83  1373.05  1424.66  1430.76
                             1468.61  1471.38  1481.95  1484.03  1508.44
                             1541.28  1591.05  1635.45  1666.92  1681.66
                             1702.56  1722.19  1818.79  1831.95  1861.12
                             1891.14  1948.65  2016.95  2098.89  2128.63
                             2161.86  2179.18  2201.20  2471.52  4249.45
                             4262.49  4378.40  4382.37  4507.02  4531.66
                             4551.24  4551.60  4652.94  4656.88

 Zero-point correction=                           0.170569 (Hartree/Particle)
 Thermal correction to Energy=                    0.189056
 Thermal correction to Enthalpy=                  0.190000
 Thermal correction to Gibbs Free Energy=         0.115645
 Sum of electronic and zero-point Energies=          -1521.302708
 Sum of electronic and thermal Energies=             -1521.284221
 Sum of electronic and thermal Enthalpies=           -1521.283277
 Sum of electronic and thermal Free Energies=        -1521.357632

                     E (Thermal)             CV                S
                      KCal/Mol        Cal/Mol-Kelvin    Cal/Mol-Kelvin
 Total                  118.634             61.441            156.493
 Electronic               0.000              0.000              0.000
 Translational            0.889              2.981             44.521
 Rotational               0.889              2.981             36.318
 Vibrational            116.857             55.479             75.655
 Vibration     1          0.593              1.987              9.412
 Vibration     2          0.593              1.986              7.329
 Vibration     3          0.593              1.986              6.617
 Vibration     4          0.594              1.981              5.198
 Vibration     5          0.597              1.974              4.472
 Vibration     6          0.597              1.971              4.307
 Vibration     7          0.603              1.951              3.498
 Vibration     8          0.609              1.933              3.100
 Vibration     9          0.611              1.925              2.974
 Vibration    10          0.612              1.923              2.941
 Vibration    11          0.620              1.896              2.594
 Vibration    12          0.631              1.862              2.291
 Vibration    13          0.644              1.821              2.015
 Vibration    14          0.646              1.813              1.973
 Vibration    15          0.650              1.803              1.920
 Vibration    16          0.669              1.745              1.658
 Vibration    17          0.677              1.720              1.567
 Vibration    18          0.684              1.699              1.497
 Vibration    19          0.686              1.692              1.472
 Vibration    20          0.709              1.626              1.285
 Vibration    21          0.785              1.421              0.883
 Vibration    22          0.786              1.418              0.878
 Vibration    23          0.790              1.408              0.863
 Vibration    24          0.817              1.342              0.770
 Vibration    25          0.853              1.255              0.664
 Vibration    26          0.872              1.212              0.617
 Vibration    27          0.905              1.140              0.544

 Optimization completed.
    -- Stationary point found.

 1\1\GINC-GPU10\Freq\RB3LYP\Gen\C15H19N1O10Zn2\X2496A02\04-Jul-2023\0\\
 #N Geom=AllCheck Guess=TCheck SCRF=Check GenChk RB3LYP/ChkBas Freq\\pa
 ddle_new_AGE_opt_freq_reposition\\0,1\Zn,-4.694489,-2.528905,2.326317\
 O,-4.600022,-0.931734,3.63136\O,-2.3394007506,-0.8624276763,3.52878985
 13\O,-3.7714,-1.279734,0.828231\O,-1.5208243106,-1.1092504602,0.692522
 696\C,-3.461226,-0.468815,3.942742\C,-2.703539,-0.842639,0.321243\Zn,-
 1.4964616885,-2.4355759374,2.2375115915\O,-2.2802541749,-3.981554541,0
 .971999868\O,-4.539354,-4.115561,1.014246\O,-1.3327830119,-3.672906018

 Normal termination of Gaussian 16 at Tue Jul  4 15:23:35 2023.
