 Gaussian 16, Revision B.01,
 Gaussian 16:  ES64L-G16RevB.01 20-Dec-2017

 ----------------------------------------------------------------------
 # opt=(calcall,tight,cartesian) freq b3lyp/gen nosymm scf=(qc,maxcycle
 =1024) pseudo=read
 ----------------------------------------------------------------------

 --------------------------
 OH_AGC_opt_freq_6_31Gdp_re
 --------------------------
 Symbolic Z-matrix:
 Charge =  0 Multiplicity = 1

 SCF Done:  E(RB3LYP) =  -1921.48835340     a.u. after    7 cycles
 SCF Done:  E(RB3LYP) =  -1921.49534791     a.u. after   12 cycles
 SCF Done:  E(RB3LYP) =  -1921.49618881     a.u. after    9 cycles
 SCF Done:  E(RB3LYP) =  -1921.49654424     a.u. after    9 cycles
 SCF Done:  E(RB3LYP) =  -1921.49676926     a.u. after   11 cycles
 SCF Done:  E(RB3LYP) =  -1921.49687500     a.u. after    9 cycles
 SCF Done:  E(RB3LYP) =  -1921.49691804     a.u. after   11 cycles
 SCF Done:  E(RB3LYP) =  -1921.49697214     a.u. after    4 cycles
 SCF Done:  E(RB3LYP) =  -1921.49698869     a.u. after    9 cycles
 SCF Done:  E(RB3LYP) =  -1921.49699825     a.u. after    7 cycles
 SCF Done:  E(RB3LYP) =  -1921.49700217     a.u. after    9 cycles
 SCF Done:  E(RB3LYP) =  -1921.49700354     a.u. after    4 cycles
 SCF Done:  E(RB3LYP) =  -1921.49700370     a.u. after    4 cycles
 SCF Done:  E(RB3LYP) =  -1921.49700371     a.u. after    2 cycles
 SCF Done:  E(RB3LYP) =  -1921.49700371     a.u. after    2 cycles
 Optimization completed on the basis of negligible forces.
    -- Stationary point found.
 Normal termination of Gaussian 16 at Tue Oct 10 23:21:55 2023.

 ------------------------------------------------------------------
 #N Geom=AllCheck Guess=TCheck SCRF=Check GenChk RB3LYP/ChkBas Freq
 ------------------------------------------------------------------

 Structure from the checkpoint file:  "OH_AGC_opt_freq_6_31Gdp_re.chk"
 --------------------------
 OH_AGC_opt_freq_6_31Gdp_re
 --------------------------
 Charge =  0 Multiplicity = 1

                          Input orientation:
 ---------------------------------------------------------------------
 Center     Atomic      Atomic             Coordinates (Angstroms)
 Number     Number       Type             X           Y           Z
 ---------------------------------------------------------------------
      1         30           0       -2.683588   -0.075521   -0.135800
      2          8           0       -1.169068   -1.307895   -1.012037
      3          8           0        0.778454    0.199377   -0.716192
      4          8           0       -1.940493   -0.637880    1.724552
      5          8           0       -0.372693    1.010875    1.916972
      6          6           0       -1.068724    0.057367    2.356892
      7         30           0       -0.198074    1.852184   -0.093889
      8          8           0       -1.630079    3.220806    0.540676
      9          8           0       -3.345064    1.725183    0.720202
     10          8           0       -1.085559    1.984761   -2.060749
     11          8           0       -2.993756    0.737325   -2.011366
     12          6           0       -2.815788    2.870560    0.840756
     13          6           0       -2.150867    1.522812   -2.559095
     14          1           0       -0.908079   -0.234626    3.419908
     15          1           0       -3.466636    3.668730    1.260937
     16          1           0       -2.389282    1.836355   -3.598888
     17          6           0        2.591387    2.859704   -0.551135
     18          6           0        3.708612    3.707815   -0.537348
     19          6           0        3.566043    5.006726   -0.021154
     20          6           0        2.309865    5.415023    0.459138
     21          6           0        1.240906    4.508199    0.410399
     22          7           0        1.383948    3.255771   -0.082584
     23          1           0        4.419088    5.690402    0.005770
     24          1           0        2.630158    1.836132   -0.934636
     25          1           0        4.665434    3.350028   -0.923448
     26          1           0        2.154774    6.416431    0.866473
     27          1           0        0.239236    4.763568    0.764493
     28          6           0       -4.734795   -1.989342    1.018511
     29          6           0       -5.893934   -2.775449    1.088845
     30          6           0       -6.754703   -2.813244   -0.021280
     31          6           0       -6.426568   -2.062530   -1.162730
     32          6           0       -5.249797   -1.299450   -1.155511
     33          7           0       -4.421278   -1.268045   -0.084209
     34          1           0       -7.665873   -3.417132    0.003100
     35          1           0       -4.025399   -1.917166    1.846823
     36          1           0       -6.111019   -3.342262    1.996669
     37          1           0       -7.067496   -2.061912   -2.046875
     38          1           0       -4.940236   -0.691384   -2.009240
     39          1           0       -0.272311   -0.727975   -0.927287
     40          1           0        1.336313   -0.170774   -0.018322
     41          1           0       -1.017503   -2.096300   -0.474446
     42          6           0       -0.663860    1.997167   -8.286550
     43          6           0       -0.615431    1.406946   -7.089665
     44          6           0        0.226931    1.886116   -5.945631
     45          8           0        1.019176    0.798185   -5.468246
     46          6           0        1.735442    1.111299   -4.281712
     47          6           0        2.564881   -0.118683   -3.947367
     48          6           0        1.756276   -1.356191   -3.523627
     49          8           0        3.366223    0.155693   -2.777718
     50          1           0       -1.316143    1.632721   -9.074784
     51          1           0       -0.055654    2.869093   -8.517864
     52          1           0       -1.226295    0.528282   -6.885501
     53          1           0       -0.412839    2.252334   -5.126465
     54          1           0        0.875613    2.718433   -6.261647
     55          1           0        1.051994    1.346470   -3.454514
     56          1           0        2.404247    1.970934   -4.445656
     57          1           0        3.246496   -0.344874   -4.775287
     58          1           0        1.711989   -2.130145   -4.289809
     59          1           0        0.753307   -1.100571   -3.174340
     60          6           0        3.314999   -0.899687   -1.920743
     61          8           0        3.930584   -0.957819   -0.889057
     62          8           0        2.509830   -1.869963   -2.403599
 ---------------------------------------------------------------------

 SCF Done:  E(RB3LYP) =  -1921.49700371     a.u. after    1 cycles

 Alpha  occ. eigenvalues --  -19.20118 -19.19819 -19.16281 -19.13732 -19.13500
 Alpha  occ. eigenvalues --  -19.13477 -19.13432 -19.13241 -19.13121 -19.13118
 Alpha  occ. eigenvalues --  -19.13091 -19.09455 -14.38934 -14.37905 -10.35807
 Alpha  occ. eigenvalues --  -10.30099 -10.29790 -10.29740 -10.25972 -10.25931
 Alpha  occ. eigenvalues --  -10.25885 -10.24931 -10.24766 -10.24621 -10.24392
 Alpha  occ. eigenvalues --  -10.24079 -10.23705 -10.23402 -10.23238 -10.23217
 Alpha  occ. eigenvalues --  -10.22293 -10.22073 -10.19831 -10.19104  -1.15298
 Alpha  occ. eigenvalues --   -1.05750  -1.05380  -1.05008  -1.04787  -1.04109
 Alpha  occ. eigenvalues --   -1.03315  -0.99113  -0.98085  -0.97472  -0.97142
 Alpha  occ. eigenvalues --   -0.97006  -0.96866  -0.92117  -0.83615  -0.82596
 Alpha  occ. eigenvalues --   -0.80953  -0.79506  -0.78425  -0.78180  -0.71468
 Alpha  occ. eigenvalues --   -0.67463  -0.66593  -0.66076  -0.65551  -0.64995
 Alpha  occ. eigenvalues --   -0.62557  -0.61827  -0.60860  -0.60388  -0.59726
 Alpha  occ. eigenvalues --   -0.59554  -0.59452  -0.59327  -0.58922  -0.58864
 Alpha  occ. eigenvalues --   -0.58374  -0.58275  -0.58089  -0.57337  -0.57033
 Alpha  occ. eigenvalues --   -0.55835  -0.55039  -0.54729  -0.54177  -0.51319
 Alpha  occ. eigenvalues --   -0.51255  -0.50733  -0.50245  -0.50069  -0.49993
 Alpha  occ. eigenvalues --   -0.49047  -0.48874  -0.48264  -0.48075  -0.47494
 Alpha  occ. eigenvalues --   -0.47271  -0.46772  -0.46531  -0.46330  -0.45322
 Alpha  occ. eigenvalues --   -0.44972  -0.44249  -0.43770  -0.43502  -0.43165
 Alpha  occ. eigenvalues --   -0.43132  -0.42965  -0.42851  -0.42298  -0.42209
 Alpha  occ. eigenvalues --   -0.42084  -0.41360  -0.40836  -0.40084  -0.39622
 Alpha  occ. eigenvalues --   -0.39243  -0.38861  -0.38577  -0.37662  -0.37443
 Alpha  occ. eigenvalues --   -0.35357  -0.34963  -0.33442  -0.33164  -0.32563
 Alpha  occ. eigenvalues --   -0.32144  -0.31553  -0.30572  -0.30455  -0.30246
 Alpha  occ. eigenvalues --   -0.29993  -0.29578  -0.29481  -0.29167  -0.29082
 Alpha  occ. eigenvalues --   -0.28532  -0.28462  -0.28066  -0.28031  -0.27658
 Alpha  occ. eigenvalues --   -0.27404  -0.27023  -0.26491  -0.26347  -0.25563
 Alpha virt. eigenvalues --   -0.07242  -0.06241  -0.05063  -0.04053  -0.01179
 Alpha virt. eigenvalues --   -0.00954  -0.00212   0.00426   0.00769   0.00803
 Alpha virt. eigenvalues --    0.01301   0.01393   0.01469   0.02122   0.02203

 Mulliken charges:
               1
     1  Zn   0.762282
     2  O   -0.797697
     3  O   -1.030822
     4  O   -0.517077
     5  O   -0.462045
     6  C    0.452648
     7  Zn   0.620833
     8  O   -0.481153
     9  O   -0.463081
    10  O   -0.428798
    11  O   -0.450773
    12  C    0.501978
    13  C    0.470273
    14  H    0.093632
    15  H    0.093227
    16  H    0.081946
    17  C   -0.304096
    18  C   -0.005690
    19  C   -0.455951
    20  C   -0.064728
    21  C   -0.135005
    22  N    0.263947
    23  H    0.144947
    24  H    0.192598
    25  H    0.152677
    26  H    0.143349
    27  H    0.185754
    28  C   -0.279228
    29  C    0.052138
    30  C   -0.560759
    31  C    0.129558
    32  C   -0.272551
    33  N    0.169495
    34  H    0.148143
    35  H    0.191116
    36  H    0.147013
    37  H    0.146823
    38  H    0.191903
    39  H    0.538605
    40  H    0.407654
    41  H    0.385929
    42  C   -0.302088
    43  C    0.081081
    44  C   -0.204558
    45  O   -0.267318
    46  C   -0.343420
    47  C    0.088876
    48  C   -0.003145
    49  O   -0.280940
    50  H    0.137374
    51  H    0.132834
    52  H    0.137001
    53  H    0.140358
    54  H    0.118005
    55  H    0.185609
    56  H    0.124938
    57  H    0.156227
    58  H    0.155952
    59  H    0.188819
    60  C    0.548787
    61  O   -0.449068
    62  O   -0.304335
 Sum of Mulliken charges =  -0.00000

 Dipole moment (field-independent basis, Debye):
    X=             -4.5486    Y=              0.8650    Z=             -1.4911  Tot=              4.8643
 Quadrupole moment (field-independent basis, Debye-Ang):
   XX=           -186.1492   YY=           -189.0660   ZZ=           -207.7322
   XY=             44.1644   XZ=             -1.2559   YZ=             -5.1430

  Exact polarizability: 349.146  53.935 313.747   8.915 -10.292 326.116
 Approx polarizability: 489.537  68.915 457.944  16.123 -15.476 455.825

                      1                      2                      3
                      A                      A                      A
 Frequencies --      6.1386                 9.8216                16.1257
 Red. masses --      5.5463                 6.9018                 6.9238
 Frc consts  --      0.0001                 0.0004                 0.0011
 IR Inten    --      0.3814                 0.1546                 0.4316

                      4                      5                      6
                      A                      A                      A
 Frequencies --     17.7553                38.4805                46.4188
 Red. masses --      6.1033                10.3280                 5.1932
 Frc consts  --      0.0011                 0.0090                 0.0066
 IR Inten    --      0.3883                 1.0485                 2.6879

                      7                      8                      9
                      A                      A                      A
 Frequencies --     54.6884                62.3370                80.4394
 Red. masses --      2.9052                 4.0254                 3.3087
 Frc consts  --      0.0051                 0.0092                 0.0126
 IR Inten    --      2.0525                 0.3324                10.3737

                     10                     11                     12
                      A                      A                      A
 Frequencies --     95.6530               103.4007               124.7406
 Red. masses --      4.1901                 5.6170                 4.5601
 Frc consts  --      0.0226                 0.0354                 0.0418
 IR Inten    --      0.5520                 0.3360                 5.7610

                     13                     14                     15
                      A                      A                      A
 Frequencies --    140.0628               142.6820               146.9728
 Red. masses --      7.4473                 4.5359                12.2793
 Frc consts  --      0.0861                 0.0544                 0.1563
 IR Inten    --      9.5899                 6.1412                 6.4825

                     16                     17                     18
                      A                      A                      A
 Frequencies --    151.9600               174.1338               175.2735
 Red. masses --      4.9642                18.7145                 5.4964
 Frc consts  --      0.0675                 0.3343                 0.0995
 IR Inten    --      5.4087                13.0744                 5.6953

                     19                     20                     21
                      A                      A                      A
 Frequencies --    196.5188               202.0262               223.0983
 Red. masses --     40.0204                 4.0939                54.8725
 Frc consts  --      0.9106                 0.0984                 1.6092
 IR Inten    --    100.2131                 1.7443                 1.5561

                     22                     23                     24
                      A                      A                      A
 Frequencies --    228.2899               266.5679               278.4084
 Red. masses --     33.1858                 3.0230                 5.8444
 Frc consts  --      1.0190                 0.1266                 0.2669
 IR Inten    --     40.1824                 7.4828                 0.9940

                     25                     26                     27
                      A                      A                      A
 Frequencies --    285.2833               390.7326               414.5542
 Red. masses --      8.6914                 2.5940                 8.1846
 Frc consts  --      0.4168                 0.2333                 0.8287
 IR Inten    --     71.0753                 2.3006                48.8534

                     28                     29                     30
                      A                      A                      A
 Frequencies --    433.5703               456.1576               482.3414
 Red. masses --      6.2003                 2.6675                 1.2010
 Frc consts  --      0.6867                 0.3270                 0.1646
 IR Inten    --    134.6929                 0.5059               100.4021

                     31                     32                     33
                      A                      A                      A
 Frequencies --    489.0726               545.4783               567.4868
 Red. masses --      2.2663                 6.1913                 1.1230
 Frc consts  --      0.3194                 1.0854                 0.2131
 IR Inten    --      2.0891                 0.1569                48.8104

                     34                     35                     36
                      A                      A                      A
 Frequencies --    647.1518               709.2000               728.9866
 Red. masses --      1.7391                 4.9985                 5.8979
 Frc consts  --      0.4291                 1.4812                 1.8467
 IR Inten    --      3.8452                 5.7480                 9.3139

                     37                     38                     39
                      A                      A                      A
 Frequencies --    734.1888               764.6944               856.7310
 Red. masses --      1.3111                 5.0077                 1.1009
 Frc consts  --      0.4164                 1.7253                 0.4761
 IR Inten    --    224.5931                 5.0950               120.8780

                     40                     41                     42
                      A                      A                      A
 Frequencies --    880.4531               930.1096               940.1317
 Red. masses --      3.5286                 3.9102                 1.4257
 Frc consts  --      1.6116                 1.9931                 0.7424
 IR Inten    --      1.5139                 2.4680                 0.6758

                     43                     44                     45
                      A                      A                      A
 Frequencies --    955.6044               958.9297               986.0361
 Red. masses --      1.3402                 1.4578                 2.0556
 Frc consts  --      0.7211                 0.7898                 1.1776
 IR Inten    --     48.5414                 4.4190                 6.1662

                     46                     47                     48
                      A                      A                      A
 Frequencies --   1018.6658              1028.7265              1071.3172
 Red. masses --      1.9357                 1.7366                 5.7334
 Frc consts  --      1.1835                 1.0828                 3.8771
 IR Inten    --      8.5109                55.8290                15.8742

                     49                     50                     51
                      A                      A                      A
 Frequencies --   1101.6512              1119.0736              1139.2304
 Red. masses --      7.8158                 2.4615                 7.9263
 Frc consts  --      5.5887                 1.8162                 6.0610
 IR Inten    --    199.2494                60.3626               264.2816

                     52                     53                     54
                      A                      A                      A
 Frequencies --   1160.9438              1177.0276              1190.0755
 Red. masses --      2.0446                 2.0353                 2.5286
 Frc consts  --      1.6236                 1.6613                 2.1100
 IR Inten    --     13.8883                36.2935                90.1700

                     55                     56                     57
                      A                      A                      A
 Frequencies --   1221.0469              1235.9191              1264.4616
 Red. masses --      1.0902                 1.1185                 1.1402
 Frc consts  --      0.9577                 1.0066                 1.0741
 IR Inten    --     56.8729               127.0843                 3.0498

                     58                     59                     60
                      A                      A                      A
 Frequencies --   1273.8829              1313.7618              1334.5380
 Red. masses --      1.1873                 1.2630                 1.1737
 Frc consts  --      1.1352                 1.2844                 1.2316
 IR Inten    --     18.0839                 0.2627                17.1230

                     61                     62                     63
                      A                      A                      A
 Frequencies --   1380.9410              1390.8026              1418.6777
 Red. masses --      1.2622                 1.5899                 1.4121
 Frc consts  --      1.4181                 1.8120                 1.6745
 IR Inten    --     29.1934                49.0816                 2.2130

                     64                     65                     66
                      A                      A                      A
 Frequencies --   1445.7764              1471.1834              1509.7990
 Red. masses --      1.4456                 1.3268                 1.0964
 Frc consts  --      1.7803                 1.6920                 1.4725
 IR Inten    --      6.9628                14.8821                 1.7198

                     67                     68                     69
                      A                      A                      A
 Frequencies --   1515.7193              1538.0882              1717.1146
 Red. masses --      1.0914                 1.0807                 4.6211
 Frc consts  --      1.4773                 1.5063                 8.0277
 IR Inten    --      2.8887                 3.3793                 3.1022

                     70                     71                     72
                      A                      A                      A
 Frequencies --   1759.8101              1870.4696              2005.7389
 Red. masses --      1.0479                12.5774                 1.1045
 Frc consts  --      1.9121                25.9264                 2.6180
 IR Inten    --     58.3677               595.0379              2235.3048

                     73                     74                     75
                      A                      A                      A
 Frequencies --   2982.7170              2996.4906              3018.2156
 Red. masses --      1.0552                 1.0614                 1.1062
 Frc consts  --      5.5312                 5.6152                 5.9375
 IR Inten    --     23.4015                57.6151                37.5852

                     76                     77                     78
                      A                      A                      A
 Frequencies --   3056.1845              3074.0373              3102.2449
 Red. masses --      1.0943                 1.0944                 1.0584
 Frc consts  --      6.0222                 6.0934                 6.0013
 IR Inten    --      5.6717                34.0743                12.9590

                     79                     80                     81
                      A                      A                      A
 Frequencies --   3148.1641              3164.5718              3167.1095
 Red. masses --      1.0588                 1.0923                 1.1115
 Frc consts  --      6.1825                 6.4450                 6.5689
 IR Inten    --     12.0565                 5.2000                10.8090

                     82                     83                     84
                      A                      A                      A
 Frequencies --   3235.7296              3832.0161              3850.0904
 Red. masses --      1.1155                 1.0660                 1.0649
 Frc consts  --      6.8815                 9.2230                 9.3005
 IR Inten    --     13.9897                15.7722                39.6840

 - Thermochemistry -
 -------------------
 Temperature   298.150 Kelvin.  Pressure   1.00000 Atm.
 Atom     1 has atomic number 30 and mass  63.92915

 Molecular mass:   614.00687 amu.
 Principal axes and moments of inertia in atomic units:
                           1         2         3
     Eigenvalues --  ******************************
           X            0.85824   0.18430  -0.47903
           Y            0.37178   0.42022   0.82777
           Z           -0.35385   0.88851  -0.29213
 This molecule is an asymmetric top.
 Rotational symmetry number  1.
 Warning -- assumption of classical behavior for rotation
           may cause significant error
 Rotational temperatures (Kelvin)      0.00529     0.00327     0.00271
 Rotational constants (GHZ):           0.11030     0.06820     0.05647
 Zero-point vibrational energy     552919.4 (Joules/Mol)
                                  132.15090 (Kcal/Mol)
 Warning -- explicit consideration of  33 degrees of freedom as
           vibrations may cause significant error
 Vibrational temperatures:      8.83    14.13    23.20    25.55    55.36
          (Kelvin)             66.79    78.68    89.69   115.73   137.62
                              148.77   179.47   201.52   205.29   211.46
                              218.64   250.54   252.18   282.75   290.67
                              320.99   328.46   383.53   400.57   410.46
                              562.18   596.45   623.81   656.31   693.98
                              703.67   784.82   816.49   931.11  1020.38
                             1048.85  1056.33  1100.22  1232.64  1266.78
                             1338.22  1352.64  1374.90  1379.69  1418.69
                             1465.63  1480.11  1541.39  1585.03  1610.10
                             1639.10  1670.34  1693.48  1712.25  1756.81
                             1778.21  1819.28  1832.83  1890.21  1920.10
                             1986.87  2001.05  2041.16  2080.15  2116.70
                             2172.26  2180.78  2212.97  2470.54  2531.97
                             2691.19  2885.81  4291.46  4311.28  4342.54
                             4397.17  4422.85  4463.44  4529.51  4553.11
                             4556.76  4655.49  5513.42  5539.42

 Zero-point correction=                           0.210596 (Hartree/Particle)
 Thermal correction to Energy=                    0.233904
 Thermal correction to Enthalpy=                  0.234848
 Thermal correction to Gibbs Free Energy=         0.147063
 Sum of electronic and zero-point Energies=          -1921.286408
 Sum of electronic and thermal Energies=             -1921.263100
 Sum of electronic and thermal Enthalpies=           -1921.262155
 Sum of electronic and thermal Free Energies=        -1921.349940

                     E (Thermal)             CV                S
                      KCal/Mol        Cal/Mol-Kelvin    Cal/Mol-Kelvin
 Total                  146.777             75.382            184.759
 Electronic               0.000              0.000              0.000
 Translational            0.889              2.981             45.128
 Rotational               0.889              2.981             37.868
 Vibrational            145.000             69.421            101.764
 Vibration     1          0.593              1.987              8.981
 Vibration     2          0.593              1.987              8.047
 Vibration     3          0.593              1.986              7.062
 Vibration     4          0.593              1.986              6.871
 Vibration     5          0.594              1.982              5.336
 Vibration     6          0.595              1.979              4.964
 Vibration     7          0.596              1.976              4.640
 Vibration     8          0.597              1.972              4.382
 Vibration     9          0.600              1.962              3.880
 Vibration    10          0.603              1.952              3.541
 Vibration    11          0.605              1.946              3.389
 Vibration    12          0.610              1.928              3.026
 Vibration    13          0.615              1.913              2.803
 Vibration    14          0.616              1.911              2.768
 Vibration    15          0.617              1.906              2.711
 Vibration    16          0.619              1.900              2.648
 Vibration    17          0.627              1.874              2.390
 Vibration    18          0.627              1.873              2.378
 Vibration    19          0.636              1.845              2.165
 Vibration    20          0.639              1.837              2.115
 Vibration    21          0.649              1.806              1.934
 Vibration    22          0.651              1.798              1.892
 Vibration    23          0.672              1.734              1.618
 Vibration    24          0.679              1.713              1.543
 Vibration    25          0.683              1.701              1.502
 Vibration    26          0.758              1.490              0.997
 Vibration    27          0.778              1.439              0.911
 Vibration    28          0.794              1.397              0.847
 Vibration    29          0.814              1.347              0.777
 Vibration    30          0.839              1.289              0.704
 Vibration    31          0.845              1.274              0.686
 Vibration    32          0.901              1.150              0.554
 Vibration    33          0.923              1.102              0.509

 Optimization completed.
    -- Stationary point found.
 Normal termination of Gaussian 16 at Tue Oct 10 23:50:33 2023.
