 Gaussian 16, Revision C.01,
 Gaussian 16:  ES64L-G16RevC.01  3-Jul-2019

 ----------------------------------------------------------------------
 # opt=(calcall,tight,cartesian) freq b3lyp/gen nosymm scf=(qc,maxcycle
 =1024) pseudo=read
 ----------------------------------------------------------------------

 --------------------------------
 OH_AGE_opt_freq_fix_reposition_1
 --------------------------------
 Symbolic Z-matrix:
 Charge =  0 Multiplicity = 1

 SCF Done:  E(RB3LYP) =  -1732.87564594     a.u. after    8 cycles
 SCF Done:  E(RB3LYP) =  -1732.87564594     a.u. after    2 cycles
 Optimization completed.
    -- Stationary point found.

 1\1\GINC-GPU11\FOpt\RB3LYP\Gen\C19H26N2O10Zn2\X2496A02\04-Jul-2023\0\\
 # opt=(calcall,tight,cartesian) freq b3lyp/gen nosymm scf=(qc,maxcycle
 =1024) pseudo=read\\OH_AGE_opt_freq_fix_reposition_1\\0,1\Zn,-2.639608
 6292,-0.0935569842,-0.1562697431\O,-1.1084611693,-1.2886669034,-1.0074
 156267\O,0.8368103261,0.1889694522,-0.7031156464\O,-1.927476,-0.633601
 ,1.712983\O,-0.370193,1.004094,1.904112\C,-1.061555,0.056982,2.341081\
 Zn,-0.1948640907,1.8142817591,-0.1287550817\O,-1.619144,3.1992,0.53704
 9\O,-3.322624,1.71361,0.715371\O,-1.078277,1.971447,-2.046925\O,-2.973

 Normal termination of Gaussian 16 at Tue Jul  4 04:03:37 2023.

 ------------------------------------------------------------------
 #N Geom=AllCheck Guess=TCheck SCRF=Check GenChk RB3LYP/ChkBas Freq
 ------------------------------------------------------------------

 Structure from the checkpoint file:  "OH_AGE_opt_freq_fix_reposition_1.chk"
 --------------------------------
 OH_AGE_opt_freq_fix_reposition_1
 --------------------------------
 Charge =  0 Multiplicity = 1

                          Input orientation:
 ---------------------------------------------------------------------
 Center     Atomic      Atomic             Coordinates (Angstroms)
 Number     Number       Type             X           Y           Z
 ---------------------------------------------------------------------
      1         30           0       -2.639609   -0.093557   -0.156270
      2          8           0       -1.108461   -1.288667   -1.007416
      3          8           0        0.836810    0.188969   -0.703116
      4          8           0       -1.927476   -0.633601    1.712983
      5          8           0       -0.370193    1.004094    1.904112
      6          6           0       -1.061555    0.056982    2.341081
      7         30           0       -0.194864    1.814282   -0.128755
      8          8           0       -1.619144    3.199200    0.537049
      9          8           0       -3.322624    1.713610    0.715371
     10          8           0       -1.078277    1.971447   -2.046925
     11          8           0       -2.973673    0.732379   -1.997873
     12          6           0       -2.796899    2.851304    0.835116
     13          6           0       -2.136438    1.512597   -2.541928
     14          1           0       -0.901987   -0.233052    3.396966
     15          1           0       -3.443381    3.644119    1.252478
     16          1           0       -2.373254    1.824036   -3.574746
     17          6           0        2.574003    2.840520   -0.547438
     18          6           0        3.683734    3.682942   -0.533743
     19          6           0        3.542121    4.973140   -0.021012
     20          6           0        2.294370    5.378698    0.456058
     21          6           0        1.232582    4.477957    0.407646
     22          7           0        1.374664    3.233930   -0.082030
     23          1           0        4.389444    5.652229    0.005731
     24          1           0        2.612514    1.823815   -0.928366
     25          1           0        4.634137    3.327555   -0.917253
     26          1           0        2.140319    6.373388    0.860660
     27          1           0        0.237631    4.731613    0.759365
     28          6           0       -4.703033   -1.975997    1.011679
     29          6           0       -5.854396   -2.756831    1.081541
     30          6           0       -6.709391   -2.794372   -0.021137
     31          6           0       -6.383457   -2.048694   -1.154930
     32          6           0       -5.214580   -1.290733   -1.147760
     33          7           0       -4.391619   -1.259539   -0.083644
     34          1           0       -7.614448   -3.394209    0.003079
     35          1           0       -3.998396   -1.904305    1.834434
     36          1           0       -6.070025   -3.319841    1.983275
     37          1           0       -7.020085   -2.048080   -2.033144
     38          1           0       -4.907096   -0.686746   -1.995762
     39          1           0       -0.187518   -0.697443   -0.950321
     40          1           0        1.365377   -0.217202    0.001000
     41          1           0       -0.939727   -2.064499   -0.457102
     42          6           0        3.824598    2.858697    7.161555
     43          6           0        4.289458    2.270505    6.056463
     44          6           0        3.520956    2.157211    4.773645
     45          8           0        3.532439    0.797701    4.346687
     46          6           0        2.881166    0.603983    3.098061
     47          6           0        2.829573   -0.882182    2.837073
     48          6           0        3.801659   -1.555920    1.964784
     49          8           0        2.470562   -1.262178    1.497715
     50          1           0        4.431414    2.945163    8.058213
     51          1           0        2.821048    3.276400    7.206911
     52          1           0        5.293522    1.848170    6.039318
     53          1           0        3.992305    2.785362    3.996546
     54          1           0        2.486564    2.511144    4.904760
     55          1           0        3.430423    1.107273    2.285534
     56          1           0        1.858474    1.008382    3.115986
     57          1           0        2.339940   -1.469307    3.614653
     58          1           0        4.012769   -2.615176    2.101579
     59          1           0        4.592171   -0.971756    1.495159
 ---------------------------------------------------------------------

 SCF Done:  E(RB3LYP) =  -1732.87564594     a.u. after    1 cycles

 Alpha  occ. eigenvalues --  -19.17353 -19.15945 -19.12645 -19.12594 -19.12147
 Alpha  occ. eigenvalues --  -19.12069 -19.12009 -19.11984 -19.11766 -19.07602
 Alpha  occ. eigenvalues --  -14.37988 -14.37682 -10.29170 -10.28526 -10.28524
 Alpha  occ. eigenvalues --  -10.24950 -10.24849 -10.24793 -10.24701 -10.24556
 Alpha  occ. eigenvalues --  -10.24408 -10.24085 -10.23496 -10.23446 -10.23338
 Alpha  occ. eigenvalues --  -10.22284 -10.22225 -10.22133 -10.22106 -10.19820
 Alpha  occ. eigenvalues --  -10.19061  -1.08356  -1.05395  -1.04909  -1.04535
 Alpha  occ. eigenvalues --   -1.04258  -0.97872  -0.97625  -0.97111  -0.96830
 Alpha  occ. eigenvalues --   -0.96503  -0.96211  -0.90272  -0.83294  -0.83144
 Alpha  occ. eigenvalues --   -0.79939  -0.79115  -0.78915  -0.74268  -0.67768
 Alpha  occ. eigenvalues --   -0.66315  -0.66156  -0.65938  -0.65592  -0.65385
 Alpha  occ. eigenvalues --   -0.60957  -0.60341  -0.59795  -0.58753  -0.58590
 Alpha  occ. eigenvalues --   -0.58533  -0.58257  -0.57843  -0.57773  -0.57597
 Alpha  occ. eigenvalues --   -0.57332  -0.57092  -0.56938  -0.56495  -0.55491
 Alpha  occ. eigenvalues --   -0.54971  -0.54133  -0.52219  -0.50902  -0.50702
 Alpha  occ. eigenvalues --   -0.49880  -0.49653  -0.49387  -0.49225  -0.48905
 Alpha  occ. eigenvalues --   -0.47959  -0.47535  -0.46933  -0.46674  -0.45972
 Alpha  occ. eigenvalues --   -0.45727  -0.45699  -0.45113  -0.44722  -0.43638
 Alpha  occ. eigenvalues --   -0.43118  -0.42978  -0.42798  -0.42634  -0.42486
 Alpha  occ. eigenvalues --   -0.41650  -0.40717  -0.40540  -0.39712  -0.39495
 Alpha  occ. eigenvalues --   -0.39101  -0.38989  -0.38802  -0.38599  -0.37885
 Alpha  occ. eigenvalues --   -0.35986  -0.33874  -0.33375  -0.32606  -0.31991
 Alpha  occ. eigenvalues --   -0.31857  -0.31717  -0.31202  -0.29391  -0.29189
 Alpha  occ. eigenvalues --   -0.28982  -0.28877  -0.28608  -0.28397  -0.28263
 Alpha  occ. eigenvalues --   -0.27774  -0.27608  -0.27074  -0.26653  -0.26385
 Alpha  occ. eigenvalues --   -0.26256  -0.25713  -0.24951  -0.24166
 Alpha virt. eigenvalues --   -0.06379  -0.06251  -0.04206  -0.04080  -0.01206
 Alpha virt. eigenvalues --   -0.00688  -0.00386   0.00850   0.01122   0.01248
 Alpha virt. eigenvalues --    0.01712   0.01798   0.02016   0.02343   0.02502

 Mulliken charges:
               1
     1  Zn   0.849034
     2  O   -0.813387
     3  O   -0.973917
     4  O   -0.485556
     5  O   -0.462764
     6  C    0.395382
     7  Zn   0.542231
     8  O   -0.501266
     9  O   -0.472226
    10  O   -0.433213
    11  O   -0.480453
    12  C    0.533927
    13  C    0.498559
    14  H    0.079293
    15  H    0.084881
    16  H    0.089088
    17  C   -0.282848
    18  C    0.090128
    19  C   -0.469344
    20  C    0.067450
    21  C   -0.197555
    22  N    0.170194
    23  H    0.143273
    24  H    0.196130
    25  H    0.140610
    26  H    0.142188
    27  H    0.187666
    28  C   -0.287690
    29  C    0.086017
    30  C   -0.553260
    31  C    0.105557
    32  C   -0.293865
    33  N    0.174398
    34  H    0.144314
    35  H    0.187091
    36  H    0.142783
    37  H    0.143975
    38  H    0.192379
    39  H    0.544326
    40  H    0.416128
    41  H    0.371298
    42  C   -0.295641
    43  C    0.008050
    44  C   -0.090268
    45  O   -0.306524
    46  C   -0.232102
    47  C   -0.145181
    48  C    0.019583
    49  O   -0.326902
    50  H    0.137020
    51  H    0.133744
    52  H    0.137405
    53  H    0.124735
    54  H    0.125544
    55  H    0.110135
    56  H    0.163626
    57  H    0.147527
    58  H    0.140697
    59  H    0.137595
 Sum of Mulliken charges =  -0.00000

 Dipole moment (field-independent basis, Debye):
    X=              0.5307    Y=             -0.1264    Z=              2.4741  Tot=              2.5335
 Quadrupole moment (field-independent basis, Debye-Ang):
   XX=           -149.2676   YY=           -172.8344   ZZ=           -206.5218
   XY=             37.1517   XZ=              2.3239   YZ=              1.9273

  Exact polarizability:     338.130      51.655     302.411      13.316      10.653     290.872
 Approx polarizability:     468.917      54.600     431.152      -6.200      12.093     418.536

                      1                      2                      3
                      A                      A                      A
 Frequencies --      5.3175                 6.6250                16.2683
 Red. masses --      5.1435                 5.6442                 4.5383
 Frc consts  --      0.0001                 0.0001                 0.0007
 IR Inten    --      0.0271                 0.0851                 0.0647

                      4                      5                      6
                      A                      A                      A
 Frequencies --     19.7051                36.1992                47.6966
 Red. masses --      5.2405                 2.5070                 5.4521
 Frc consts  --      0.0012                 0.0019                 0.0073
 IR Inten    --      0.0814                 0.6345                 1.2452

                      7                      8                      9
                      A                      A                      A
 Frequencies --     55.9754                60.3952               100.2332
 Red. masses --      4.4071                 2.8773                 7.0635
 Frc consts  --      0.0081                 0.0062                 0.0418
 IR Inten    --      0.3315                 1.8540                 0.5301

                     10                     11                     12
                      A                      A                      A
 Frequencies --    102.8698               120.4363               134.3811
 Red. masses --      2.8708                 5.0055                11.3990
 Frc consts  --      0.0179                 0.0428                 0.1213
 IR Inten    --      0.7113                 8.5168                 6.1687

                     13                     14                     15
                      A                      A                      A
 Frequencies --    136.7323               138.1148               158.9220
 Red. masses --      3.7272                 3.1040                22.4966
 Frc consts  --      0.0411                 0.0349                 0.3348
 IR Inten    --      3.3064                 1.6198                15.6679

                     16                     17                     18
                      A                      A                      A
 Frequencies --    166.1760               183.2288               196.0559
 Red. masses --     17.5686                 7.2359                32.9200
 Frc consts  --      0.2858                 0.1431                 0.7455
 IR Inten    --     14.1735                 9.7600                74.3680

                     19                     20                     21
                      A                      A                      A
 Frequencies --    224.5462               238.5017               282.1973
 Red. masses --     56.2905                32.6133                 6.9478
 Frc consts  --      1.6722                 1.0930                 0.3260
 IR Inten    --      2.2335                42.5233               112.1732

                     22                     23                     24
                      A                      A                      A
 Frequencies --    285.4490               318.5158               403.3400
 Red. masses --      3.0749                 4.1332                 2.2636
 Frc consts  --      0.1476                 0.2471                 0.2170
 IR Inten    --     38.0039                 1.3028                 0.3959

                     25                     26                     27
                      A                      A                      A
 Frequencies --    415.6849               455.5843               456.8319
 Red. masses --      7.2127                 2.9202                 3.9616
 Frc consts  --      0.7343                 0.3571                 0.4871
 IR Inten    --     69.2032                55.0207               156.9283

                     28                     29                     30
                      A                      A                      A
 Frequencies --    478.1691               489.8406               651.8157
 Red. masses --      1.2752                 2.7235                 1.4103
 Frc consts  --      0.1718                 0.3850                 0.3530
 IR Inten    --     89.0281                 0.3496                25.1911

                     31                     32                     33
                      A                      A                      A
 Frequencies --    653.3981               772.7569               831.9402
 Red. masses --      1.2425                 1.0968                 3.9879
 Frc consts  --      0.3125                 0.3859                 1.6262
 IR Inten    --     15.2930               119.4005                30.9533

                     34                     35                     36
                      A                      A                      A
 Frequencies --    866.4018               915.3792               920.0590
 Red. masses --      4.2988                 1.2261                 1.0908
 Frc consts  --      1.9012                 0.6053                 0.5440
 IR Inten    --     40.9018                18.1281                95.5144

                     37                     38                     39
                      A                      A                      A
 Frequencies --    937.7742               955.4166               983.5968
 Red. masses --      1.4515                 1.3352                 1.9735
 Frc consts  --      0.7521                 0.7181                 1.1249
 IR Inten    --      6.6697                48.5781                 2.8744

                     40                     41                     42
                      A                      A                      A
 Frequencies --   1011.3407              1022.4361              1036.6039
 Red. masses --      2.4418                 1.2121                 2.2147
 Frc consts  --      1.4715                 0.7466                 1.4022
 IR Inten    --     44.7440                10.2784                29.1721

                     43                     44                     45
                      A                      A                      A
 Frequencies --   1105.2997              1136.2853              1150.7754
 Red. masses --      1.4752                 7.1655                 1.4419
 Frc consts  --      1.0618                 5.4509                 1.1250
 IR Inten    --      0.2464               278.4803                 2.5700

                     46                     47                     48
                      A                      A                      A
 Frequencies --   1156.1157              1179.5693              1182.2778
 Red. masses --      1.5164                 1.7995                 1.6626
 Frc consts  --      1.1941                 1.4752                 1.3692
 IR Inten    --      1.2206                14.0831                 5.2235

                     49                     50                     51
                      A                      A                      A
 Frequencies --   1235.1464              1249.0621              1263.8044
 Red. masses --      1.0681                 1.1691                 1.1435
 Frc consts  --      0.9600                 1.0746                 1.0761
 IR Inten    --    446.1539                 9.5788                 5.5108

                     52                     53                     54
                      A                      A                      A
 Frequencies --   1282.8668              1313.0851              1370.1771
 Red. masses --      1.4355                 1.2658                 1.2446
 Frc consts  --      1.3919                 1.2859                 1.3767
 IR Inten    --      5.6191                 0.6676                60.4285

                     55                     56                     57
                      A                      A                      A
 Frequencies --   1411.7868              1457.7669              1475.3635
 Red. masses --      1.4090                 1.3782                 1.4440
 Frc consts  --      1.6546                 1.7256                 1.8519
 IR Inten    --      5.3534                 7.3593                 8.6158

                     58                     59                     60
                      A                      A                      A
 Frequencies --   1507.7019              1525.3194              1537.1187
 Red. masses --      1.0998                 1.2236                 1.2465
 Frc consts  --      1.4729                 1.6773                 1.7352
 IR Inten    --      5.2067                 4.2897                 6.3119

                     61                     62                     63
                      A                      A                      A
 Frequencies --   1684.6580              1717.0428              1785.1165
 Red. masses --      1.1099                 4.6285                 1.0526
 Frc consts  --      1.8558                 8.0399                 1.9762
 IR Inten    --   2409.5901                 3.5462                78.2690

                     64                     65                     66
                      A                      A                      A
 Frequencies --   2955.6789              2984.4487              3013.9969
 Red. masses --      1.0645                 1.0618                 1.0946
 Frc consts  --      5.4792                 5.5720                 5.8583
 IR Inten    --     39.0390                54.6594                32.3570

                     67                     68                     69
                      A                      A                      A
 Frequencies --   3042.0421              3106.5715              3137.7193
 Red. masses --      1.1015                 1.0504                 1.0898
 Frc consts  --      6.0056                 5.9728                 6.3213
 IR Inten    --      6.7952                27.2293                16.5081

                     70                     71                     72
                      A                      A                      A
 Frequencies --   3148.0968              3164.7231              3197.7550
 Red. masses --      1.0587                 1.0923                 1.1208
 Frc consts  --      6.1820                 6.4454                 6.7525
 IR Inten    --     10.0287                 6.9603                21.5142

                     73                     74                     75
                      A                      A                      A
 Frequencies --   3235.4956              3785.5902              3850.5835
 Red. masses --      1.1156                 1.0661                 1.0649
 Frc consts  --      6.8807                 9.0016                 9.3030
 IR Inten    --     16.2947               190.8765                29.8904

 - Thermochemistry -
 -------------------
 Temperature   298.150 Kelvin.  Pressure   1.00000 Atm.
 Atom     1 has atomic number 30 and mass  63.92915

 Molecular mass:   570.01704 amu.
 Principal axes and moments of inertia in atomic units:
                           1         2         3
     Eigenvalues --  ******************************
           X            0.85452  -0.01478  -0.51921
           Y            0.36783  -0.68855   0.62498
           Z            0.36674   0.72504   0.58294
 This molecule is an asymmetric top.
 Rotational symmetry number  1.
 Warning -- assumption of classical behavior for rotation
           may cause significant error
 Rotational temperatures (Kelvin)      0.00783     0.00308     0.00265
 Rotational constants (GHZ):           0.16309     0.06422     0.05519
 Zero-point vibrational energy     506271.3 (Joules/Mol)
                                  121.00175 (Kcal/Mol)
 Warning -- explicit consideration of  29 degrees of freedom as
           vibrations may cause significant error
 Vibrational temperatures:      7.65     9.53    23.41    28.35    52.08
          (Kelvin)             68.62    80.54    86.90   144.21   148.01
                              173.28   193.34   196.73   198.72   228.65
                              239.09   263.63   282.08   323.07   343.15
                              406.02   410.70   458.27   580.32   598.08
                              655.48   657.28   687.98   704.77   937.82
                              940.09  1111.82  1196.98  1246.56  1317.03
                             1323.76  1349.25  1374.63  1415.18  1455.09
                             1471.06  1491.44  1590.28  1634.86  1655.71
                             1663.39  1697.14  1701.03  1777.10  1797.12
                             1818.33  1845.76  1889.24  1971.38  2031.25
                             2097.40  2122.72  2169.25  2194.59  2211.57
                             2423.85  2470.44  2568.38  4252.56  4293.96
                             4336.47  4376.82  4469.66  4514.48  4529.41
                             4553.33  4600.86  4655.16  5446.62  5540.13

 Zero-point correction=                           0.192829 (Hartree/Particle)
 Thermal correction to Energy=                    0.214172
 Thermal correction to Enthalpy=                  0.215117
 Thermal correction to Gibbs Free Energy=         0.130876
 Sum of electronic and zero-point Energies=          -1732.682817
 Sum of electronic and thermal Energies=             -1732.661474
 Sum of electronic and thermal Enthalpies=           -1732.660529
 Sum of electronic and thermal Free Energies=        -1732.744770

                     E (Thermal)             CV                S
                      KCal/Mol        Cal/Mol-Kelvin    Cal/Mol-Kelvin
 Total                  134.395             67.603            177.299
 Electronic               0.000              0.000              0.000
 Translational            0.889              2.981             44.906
 Rotational               0.889              2.981             37.562
 Vibrational            132.618             61.642             94.831
 Vibration     1          0.593              1.987              9.266
 Vibration     2          0.593              1.987              8.829
 Vibration     3          0.593              1.986              7.044
 Vibration     4          0.593              1.986              6.664
 Vibration     5          0.594              1.982              5.457
 Vibration     6          0.595              1.978              4.911
 Vibration     7          0.596              1.975              4.594
 Vibration     8          0.597              1.973              4.444
 Vibration     9          0.604              1.949              3.450
 Vibration    10          0.605              1.947              3.399
 Vibration    11          0.609              1.932              3.093
 Vibration    12          0.613              1.919              2.882
 Vibration    13          0.614              1.917              2.849
 Vibration    14          0.614              1.915              2.830
 Vibration    15          0.621              1.893              2.563
 Vibration    16          0.624              1.884              2.478
 Vibration    17          0.631              1.863              2.295
 Vibration    18          0.636              1.845              2.170
 Vibration    19          0.649              1.804              1.922
 Vibration    20          0.656              1.782              1.814
 Vibration    21          0.681              1.707              1.520
 Vibration    22          0.683              1.701              1.501
 Vibration    23          0.705              1.638              1.318
 Vibration    24          0.769              1.463              0.950
 Vibration    25          0.779              1.436              0.907
 Vibration    26          0.814              1.349              0.779
 Vibration    27          0.815              1.346              0.775
 Vibration    28          0.835              1.298              0.715
 Vibration    29          0.846              1.273              0.684

 Optimization completed.
    -- Stationary point found.

 1\1\GINC-GPU11\Freq\RB3LYP\Gen\C19H26N2O10Zn2\X2496A02\04-Jul-2023\0\\
 #N Geom=AllCheck Guess=TCheck SCRF=Check GenChk RB3LYP/ChkBas Freq\\OH
 _AGE_opt_freq_fix_reposition_1\\0,1\Zn,-2.6396086292,-0.0935569842,-0.
 1562697431\O,-1.1084611693,-1.2886669034,-1.0074156267\O,0.8368103261,
 0.1889694522,-0.7031156464\O,-1.927476,-0.633601,1.712983\O,-0.370193,
 1.004094,1.904112\C,-1.061555,0.056982,2.341081\Zn,-0.1948640907,1.814
 2817591,-0.1287550817\O,-1.619144,3.1992,0.537049\O,-3.322624,1.71361,
 0.715371\O,-1.078277,1.971447,-2.046925\O,-2.973673,0.732379,-1.997873

 Normal termination of Gaussian 16 at Tue Jul  4 04:28:06 2023.
