 Gaussian 16, Revision B.01,
 Gaussian 16:  ES64L-G16RevB.01 20-Dec-2017

 ----------------------------------------------------------------------
 # opt=(calcall,tight,cartesian) freq b3lyp/gen nosymm scf=(qc,maxcycle
 =1024) pseudo=read
 ----------------------------------------------------------------------

 --------------
 OH_opt_freq_re
 --------------
 Symbolic Z-matrix:
 Charge =  0 Multiplicity = 1

 SCF Done:  E(RB3LYP) =  -1347.82424669     a.u. after    8 cycles
 SCF Done:  E(RB3LYP) =  -1347.82579042     a.u. after   11 cycles
 SCF Done:  E(RB3LYP) =  -1347.82772801     a.u. after   13 cycles
 SCF Done:  E(RB3LYP) =  -1347.82909460     a.u. after   11 cycles
 SCF Done:  E(RB3LYP) =  -1347.82961777     a.u. after   15 cycles
 SCF Done:  E(RB3LYP) =  -1347.82985479     a.u. after   11 cycles
 SCF Done:  E(RB3LYP) =  -1347.82999498     a.u. after   13 cycles
 SCF Done:  E(RB3LYP) =  -1347.83010475     a.u. after   11 cycles
 SCF Done:  E(RB3LYP) =  -1347.83002928     a.u. after   15 cycles
 SCF Done:  E(RB3LYP) =  -1347.83019626     a.u. after    9 cycles
 SCF Done:  E(RB3LYP) =  -1347.83315828     a.u. after   12 cycles
 SCF Done:  E(RB3LYP) =  -1347.83328492     a.u. after   13 cycles
 SCF Done:  E(RB3LYP) =  -1347.83335605     a.u. after   10 cycles
 SCF Done:  E(RB3LYP) =  -1347.83340721     a.u. after   10 cycles
 SCF Done:  E(RB3LYP) =  -1347.83341521     a.u. after   12 cycles
 SCF Done:  E(RB3LYP) =  -1347.83343500     a.u. after    2 cycles
 SCF Done:  E(RB3LYP) =  -1347.83343665     a.u. after    4 cycles
 SCF Done:  E(RB3LYP) =  -1347.83343668     a.u. after    2 cycles
 SCF Done:  E(RB3LYP) =  -1347.83343668     a.u. after    2 cycles
 Optimization completed.
    -- Stationary point found.
 Normal termination of Gaussian 16 at Thu May 11 16:47:28 2023.

 ------------------------------------------------------------------
 #N Geom=AllCheck Guess=TCheck SCRF=Check GenChk RB3LYP/ChkBas Freq
 ------------------------------------------------------------------

 Structure from the checkpoint file:  "OH_opt_freq_re.chk"
 --------------
 OH_opt_freq_re
 --------------
 Charge =  0 Multiplicity = 1

                          Input orientation:
 ---------------------------------------------------------------------
 Center     Atomic      Atomic             Coordinates (Angstroms)
 Number     Number       Type             X           Y           Z
 ---------------------------------------------------------------------
      1         30           0       -1.481481    0.106072    0.178203
      2          8           0       -0.856943    0.938280    1.918318
      3          8           0        1.589686    1.191073    1.907815
      4          8           0       -1.346477    2.009231   -0.810853
      5          8           0        0.920398    1.994999   -0.759250
      6          6           0       -0.205649    2.495492   -1.042003
      7         30           0        1.690850    0.185272    0.045178
      8          8           0        1.502810   -0.701152   -1.827178
      9          8           0       -0.753250   -0.699362   -1.664238
     10          8           0        1.015684   -1.509214    1.034287
     11          8           0       -1.224051   -1.822640    0.991496
     12          6           0        0.331030   -0.940958   -2.249876
     13          6           0       -0.042247   -2.156669    1.274557
     14          1           0       -0.183365    3.479490   -1.546503
     15          1           0        0.263311   -1.414664   -3.245840
     16          1           0        0.089412   -3.125179    1.788740
     17          6           0        4.539879    0.252192    1.161673
     18          6           0        5.926397    0.123125    1.217753
     19          6           0        6.614987   -0.238249    0.058175
     20          6           0        5.892228   -0.463394   -1.114832
     21          6           0        4.506135   -0.318325   -1.088481
     22          7           0        3.845339    0.039476    0.028365
     23          1           0        7.695825   -0.345975    0.069385
     24          1           0        3.946837    0.526430    2.029513
     25          1           0        6.447729    0.300790    2.152442
     26          1           0        6.386838   -0.750940   -2.036594
     27          1           0        3.888072   -0.496112   -1.963191
     28          6           0       -4.261826   -1.144226    0.403396
     29          6           0       -5.638014   -1.310669    0.256377
     30          6           0       -6.367295   -0.325452   -0.411693
     31          6           0       -5.694869    0.791836   -0.910604
     32          6           0       -4.317092    0.885729   -0.721662
     33          7           0       -3.616626   -0.064098   -0.074813
     34          1           0       -7.440816   -0.427243   -0.542791
     35          1           0       -3.640386   -1.879235    0.906423
     36          1           0       -6.120015   -2.196038    0.657359
     37          1           0       -6.222227    1.579330   -1.438650
     38          1           0       -3.738770    1.728348   -1.089219
     39          1           0        0.500238    1.090844    2.027037
     40          1           0        1.729482    2.136760    1.764177
     41          1           0       -1.269563    1.796812    2.074077
 ---------------------------------------------------------------------

 SCF Done:  E(RB3LYP) =  -1347.83343668     a.u. after    1 cycles

 Alpha  occ. eigenvalues --  -19.12662 -19.12615 -19.12476 -19.12467 -19.12245
 Alpha  occ. eigenvalues --  -19.12190 -19.12031 -19.08548 -14.38255 -14.37868
 Alpha  occ. eigenvalues --  -10.29142 -10.28909 -10.28682 -10.25075 -10.25037
 Alpha  occ. eigenvalues --  -10.24751 -10.24690 -10.23597 -10.23280 -10.22423
 Alpha  occ. eigenvalues --  -10.22402 -10.22115 -10.22075  -1.05352  -1.04940
 Alpha  occ. eigenvalues --   -1.04700  -0.98076  -0.97788  -0.97575  -0.96806
 Alpha  occ. eigenvalues --   -0.96532  -0.96298  -0.91202  -0.83403  -0.83080
 Alpha  occ. eigenvalues --   -0.79213  -0.78883  -0.66232  -0.65899  -0.65688
 Alpha  occ. eigenvalues --   -0.65359  -0.61056  -0.60126  -0.59654  -0.59082
 Alpha  occ. eigenvalues --   -0.58846  -0.58641  -0.58485  -0.57981  -0.57491
 Alpha  occ. eigenvalues --   -0.57454  -0.57228  -0.56561  -0.55585  -0.55099
 Alpha  occ. eigenvalues --   -0.54458  -0.51024  -0.50693  -0.49970  -0.49419
 Alpha  occ. eigenvalues --   -0.49218  -0.47758  -0.46961  -0.46699  -0.46211
 Alpha  occ. eigenvalues --   -0.45861  -0.45363  -0.44367  -0.43696  -0.43386
 Alpha  occ. eigenvalues --   -0.42931  -0.42634  -0.42542  -0.41662  -0.40919
 Alpha  occ. eigenvalues --   -0.40252  -0.39661  -0.39105  -0.38771  -0.38138
 Alpha  occ. eigenvalues --   -0.33968  -0.32919  -0.32138  -0.31805  -0.31342
 Alpha  occ. eigenvalues --   -0.30279  -0.29196  -0.29006  -0.28750  -0.28486
 Alpha  occ. eigenvalues --   -0.28033  -0.27822  -0.27020  -0.26811  -0.26622
 Alpha  occ. eigenvalues --   -0.26417  -0.25197  -0.24693
 Alpha virt. eigenvalues --   -0.06543  -0.06182  -0.04363  -0.04036  -0.00563
 Alpha virt. eigenvalues --   -0.00264   0.00871   0.01680   0.01744   0.01927
 Alpha virt. eigenvalues --    0.02459   0.02557   0.02853   0.03298   0.03618

 Mulliken charges:
               1
     1  Zn   0.804697
     2  O   -0.943066
     3  O   -0.841427
     4  O   -0.498700
     5  O   -0.491597
     6  C    0.428391
     7  Zn   0.723179
     8  O   -0.495364
     9  O   -0.462570
    10  O   -0.456217
    11  O   -0.456843
    12  C    0.510852
    13  C    0.480924
    14  H    0.087201
    15  H    0.088851
    16  H    0.089321
    17  C   -0.332850
    18  C    0.068361
    19  C   -0.513039
    20  C    0.094246
    21  C   -0.223854
    22  N    0.162136
    23  H    0.145071
    24  H    0.194085
    25  H    0.144424
    26  H    0.144059
    27  H    0.190307
    28  C   -0.245642
    29  C    0.080206
    30  C   -0.526963
    31  C    0.049629
    32  C   -0.247463
    33  N    0.163059
    34  H    0.143657
    35  H    0.191141
    36  H    0.143287
    37  H    0.142291
    38  H    0.188480
    39  H    0.543116
    40  H    0.381371
    41  H    0.353251
 Sum of Mulliken charges =  -0.00000

 Dipole moment (field-independent basis, Debye):
    X=              0.6286    Y=              0.8101    Z=             -1.0620  Tot=              1.4762
 Quadrupole moment (field-independent basis, Debye-Ang):
   XX=            -75.2952   YY=           -150.8704   ZZ=           -159.0483
   XY=              0.6369   XZ=              3.4889   YZ=              1.6913

  Exact polarizability: 308.490   1.118 189.040   8.008  -9.243 193.952
 Approx polarizability: 414.566   1.248 280.900  11.027 -16.157 296.416

                      1                      2                      3
                      A                      A                      A
 Frequencies --     19.9643                20.9141                33.9861
 Red. masses --      6.6556                 6.6454                 3.7797
 Frc consts  --      0.0016                 0.0017                 0.0026
 IR Inten    --      2.5189                 2.6247                 0.0967

                      4                      5                      6
                      A                      A                      A
 Frequencies --     39.7548                50.0654                51.3714
 Red. masses --      4.0401                 8.6421                 8.5714
 Frc consts  --      0.0038                 0.0128                 0.0133
 IR Inten    --      0.0670                 0.5410                 0.2676

                      7                      8                      9
                      A                      A                      A
 Frequencies --     76.8572                79.4114                91.2508
 Red. masses --     10.1083                 9.5908                 9.6264
 Frc consts  --      0.0352                 0.0356                 0.0472
 IR Inten    --      0.1014                 0.2540                 0.4833

                     10                     11                     12
                      A                      A                      A
 Frequencies --     94.2973               106.8429               109.4924
 Red. masses --      6.9895                 8.4790                 6.2572
 Frc consts  --      0.0366                 0.0570                 0.0442
 IR Inten    --      1.0031                 0.0291                 0.7962

                     13                     14                     15
                      A                      A                      A
 Frequencies --    113.0949               126.4629               129.1264
 Red. masses --      5.8410                 7.1664                 5.1314
 Frc consts  --      0.0440                 0.0675                 0.0504
 IR Inten    --      0.3841                 9.2848                 1.0149

                     16                     17                     18
                      A                      A                      A
 Frequencies --    133.6993               138.6866               144.3348
 Red. masses --      5.6346                 5.8340                 4.6319
 Frc consts  --      0.0593                 0.0661                 0.0569
 IR Inten    --      1.0243                 9.0298                10.3887

                     19                     20                     21
                      A                      A                      A
 Frequencies --    154.3184               173.4566               174.9352
 Red. masses --      8.6780                 5.1129                 5.6053
 Frc consts  --      0.1218                 0.0906                 0.1011
 IR Inten    --     27.0317                 1.2942                 8.1174

                     22                     23                     24
                      A                      A                      A
 Frequencies --    192.2415               195.1425               210.2904
 Red. masses --     10.9410                14.0292                10.0270
 Frc consts  --      0.2382                 0.3148                 0.2613
 IR Inten    --     16.1662                56.8906                 7.6644

                     25                     26                     27
                      A                      A                      A
 Frequencies --    216.7976               222.4328               246.3575
 Red. masses --     13.5052                 9.5253                 2.5922
 Frc consts  --      0.3740                 0.2777                 0.0927
 IR Inten    --     31.9367                 2.4863                19.1848

                     28                     29                     30
                      A                      A                      A
 Frequencies --    279.1662               292.4678               302.0654
 Red. masses --      7.4856                 4.5946                 5.7591
 Frc consts  --      0.3437                 0.2316                 0.3096
 IR Inten    --      9.4458                56.3259                44.9458

                     31                     32                     33
                      A                      A                      A
 Frequencies --    313.2132               319.9226               326.1329
 Red. masses --      4.7795                 8.3337                 5.4299
 Frc consts  --      0.2763                 0.5026                 0.3403
 IR Inten    --      2.6895                14.8357                97.4199

                     34                     35                     36
                      A                      A                      A
 Frequencies --    335.5025               394.9941               400.4029
 Red. masses --      8.4662                 9.6288                 2.3758
 Frc consts  --      0.5615                 0.8851                 0.2244
 IR Inten    --     97.3717                51.3051                10.4384

                     37                     38                     39
                      A                      A                      A
 Frequencies --    401.6931               407.1745               430.5783
 Red. masses --      2.6704                 1.4810                 3.7443
 Frc consts  --      0.2539                 0.1447                 0.4090
 IR Inten    --      2.8312                80.8270                21.9326

                     40                     41                     42
                      A                      A                      A
 Frequencies --    432.4094               449.5272               547.9309
 Red. masses --      3.8101                 4.3536                 1.1441
 Frc consts  --      0.4197                 0.5183                 0.2024
 IR Inten    --     14.5793               160.3480                54.2465

                     43                     44                     45
                      A                      A                      A
 Frequencies --    645.3567               645.6609               663.6866
 Red. masses --      6.9464                 6.9575                 6.3449
 Frc consts  --      1.7045                 1.7089                 1.6466
 IR Inten    --     33.6021                 1.2706                 0.4570

                     46                     47                     48
                      A                      A                      A
 Frequencies --    663.7594               715.4532               717.0496
 Red. masses --      6.3300                 1.7291                 1.7733
 Frc consts  --      1.6431                 0.5215                 0.5372
 IR Inten    --      0.2434                50.2037                54.8478

                     49                     50                     51
                      A                      A                      A
 Frequencies --    731.2463               753.9468               759.4118
 Red. masses --      1.1655                11.2073                10.7687
 Frc consts  --      0.3672                 3.7535                 3.6590
 IR Inten    --    136.9713                21.6471                27.2014

                     52                     53                     54
                      A                      A                      A
 Frequencies --    766.2989               770.1719               770.3558
 Red. masses --     10.5780                 1.7175                 1.6841
 Frc consts  --      3.6597                 0.6002                 0.5888
 IR Inten    --     19.5751                20.4423                22.5696

                     55                     56                     57
                      A                      A                      A
 Frequencies --    843.8478               900.6939               901.6663
 Red. masses --      1.1151                 1.2443                 1.2437
 Frc consts  --      0.4678                 0.5948                 0.5957
 IR Inten    --     40.7495                 0.0135                 0.1664

                     58                     59                     60
                      A                      A                      A
 Frequencies --    988.2545               989.7330              1023.0294
 Red. masses --      1.3181                 1.3178                 1.3367
 Frc consts  --      0.7584                 0.7606                 0.8243
 IR Inten    --      0.5087                 0.6212                 0.4572

                     61                     62                     63
                      A                      A                      A
 Frequencies --   1023.0485              1024.9824              1027.1467
 Red. masses --      1.3067                 1.4193                 1.3838
 Frc consts  --      0.8058                 0.8786                 0.8602
 IR Inten    --      0.0045                 0.0805                 2.0299

                     64                     65                     66
                      A                      A                      A
 Frequencies --   1035.7563              1035.8957              1049.7489
 Red. masses --      6.2725                 6.2935                 5.8611
 Frc consts  --      3.9647                 3.9790                 3.8054
 IR Inten    --      6.2288                 3.4246                61.6523

                     67                     68                     69
                      A                      A                      A
 Frequencies --   1050.1843              1055.3437              1057.0290
 Red. masses --      6.0749                 1.6893                 1.6916
 Frc consts  --      3.9475                 1.1085                 1.1136
 IR Inten    --      9.8632                 0.0019                 0.1720

                     70                     71                     72
                      A                      A                      A
 Frequencies --   1059.2119              1092.0704              1092.9154
 Red. masses --      1.6907                 1.7312                 1.7432
 Frc consts  --      1.1176                 1.2165                 1.2268
 IR Inten    --      0.0117                 3.8487                 0.2539

                     73                     74                     75
                      A                      A                      A
 Frequencies --   1096.3029              1096.7908              1178.3809
 Red. masses --      1.6690                 1.6619                 1.1162
 Frc consts  --      1.1819                 1.1779                 0.9132
 IR Inten    --     47.3688                12.4608                 3.6566

                     76                     77                     78
                      A                      A                      A
 Frequencies --   1178.5333              1233.9858              1251.5691
 Red. masses --      1.1159                 1.1187                 1.2592
 Frc consts  --      0.9132                 1.0037                 1.1621
 IR Inten    --      3.3935               718.3090                 4.7575

                     79                     80                     81
                      A                      A                      A
 Frequencies --   1253.2643              1309.9529              1310.7024
 Red. masses --      1.2829                 7.6690                 7.6393
 Frc consts  --      1.1872                 7.7536                 7.7323
 IR Inten    --     19.0451                 0.8435                 0.9441

                     82                     83                     84
                      A                      A                      A
 Frequencies --   1388.8814              1392.7600              1394.0073
 Red. masses --      1.8881                 1.3948                 1.7997
 Frc consts  --      2.1459                 1.5941                 2.0606
 IR Inten    --     72.6552                23.6223                72.6384

                     85                     86                     87
                      A                      A                      A
 Frequencies --   1396.2730              1398.7110              1402.0950
 Red. masses --      2.0199                 1.2456                 1.1615
 Frc consts  --      2.3202                 1.4358                 1.3454
 IR Inten    --     52.5707                37.9332                31.5046

                     88                     89                     90
                      A                      A                      A
 Frequencies --   1405.6917              1408.7602              1487.0867
 Red. masses --      3.0371                 2.7426                 2.1453
 Frc consts  --      3.5358                 3.2069                 2.7952
 IR Inten    --    108.9751                63.8627                33.9551

                     91                     92                     93
                      A                      A                      A
 Frequencies --   1487.9725              1521.7197              1523.6643
 Red. masses --      2.1289                 1.9607                 1.9516
 Frc consts  --      2.7771                 2.6750                 2.6695
 IR Inten    --     34.4360                15.1519                13.5843

                     94                     95                     96
                      A                      A                      A
 Frequencies --   1598.9472              1622.1323              1623.3328
 Red. masses --      2.6776                 5.6847                 5.6018
 Frc consts  --      4.0333                 8.8132                 8.6975
 IR Inten    --     66.6367                 4.0095                 6.2986

                     97                     98                     99
                      A                      A                      A
 Frequencies --   1644.6108              1653.0774              1655.6797
 Red. masses --      6.6445                 3.5371                 4.7949
 Frc consts  --     10.5886                 5.6948                 7.7443
 IR Inten    --     23.1688                 0.6430                93.0054

                    100                    101                    102
                      A                      A                      A
 Frequencies --   1655.9995              1746.9804              1771.9951
 Red. masses --      4.5669                 2.3250                 1.0919
 Frc consts  --      7.3788                 4.1806                 2.0201
 IR Inten    --      2.7857              4239.0754               306.1682

                    103                    104                    105
                      A                      A                      A
 Frequencies --   2985.8437              2999.5986              3006.4416
 Red. masses --      1.0829                 1.0837                 1.0840
 Frc consts  --      5.6881                 5.7449                 5.7728
 IR Inten    --    146.3950               134.9266               116.4434

                    106                    107                    108
                      A                      A                      A
 Frequencies --   3194.7231              3195.3966              3205.6403
 Red. masses --      1.0879                 1.0880                 1.0907
 Frc consts  --      6.5422                 6.5454                 6.6039
 IR Inten    --      8.4095                 7.9016                 2.6649

                    109                    110                    111
                      A                      A                      A
 Frequencies --   3206.9435              3211.0393              3212.5628
 Red. masses --      1.0894                 1.0940                 1.0926
 Frc consts  --      6.6013                 6.6457                 6.6440
 IR Inten    --      3.2875                 5.1010                 4.6076

                    112                    113                    114
                      A                      A                      A
 Frequencies --   3219.7585              3220.4279              3224.0965
 Red. masses --      1.0955                 1.0956                 1.0996
 Frc consts  --      6.6915                 6.6946                 6.7344
 IR Inten    --      4.1061                 3.5726                22.7958

                    115                    116                    117
                      A                      A                      A
 Frequencies --   3225.0375              3842.2371              3857.2586
 Red. masses --      1.0993                 1.0648                 1.0660
 Frc consts  --      6.7367                 9.2614                 9.3445
 IR Inten    --     18.0643                26.4267                13.0707

 - Thermochemistry -
 -------------------
 Temperature   298.150 Kelvin.  Pressure   1.00000 Atm.
 Atom     1 has atomic number 30 and mass  63.92915

 Molecular mass:   455.94896 amu.
 Principal axes and moments of inertia in atomic units:
                           1         2         3
     Eigenvalues --  3626.68417********************
           X            0.99962   0.00817  -0.02626
           Y            0.00898   0.80562   0.59237
           Z            0.02600  -0.59238   0.80524
 This molecule is an asymmetric top.
 Rotational symmetry number  1.
 Warning -- assumption of classical behavior for rotation
           may cause significant error
 Rotational temperatures (Kelvin)      0.02388     0.00462     0.00454
 Rotational constants (GHZ):           0.49763     0.09635     0.09462
 Zero-point vibrational energy     763986.6 (Joules/Mol)
                                  182.59718 (Kcal/Mol)
 Warning -- explicit consideration of  42 degrees of freedom as
           vibrations may cause significant error
 Vibrational temperatures:     28.72    30.09    48.90    57.20    72.03
          (Kelvin)             73.91   110.58   114.26   131.29   135.67
                              153.72   157.54   162.72   181.95   185.78
                              192.36   199.54   207.67   222.03   249.57
                              251.69   276.59   280.77   302.56   311.92
                              320.03   354.45   401.66   420.80   434.60
                              450.64   460.30   469.23   482.71   568.31
                              576.09   577.95   585.83   619.51   622.14
                              646.77   788.35   928.52   928.96   954.90
                              955.00  1029.38  1031.67  1052.10  1084.76
                             1092.62  1102.53  1108.11  1108.37  1214.11
                             1295.90  1297.30  1421.88  1424.00  1471.91
                             1471.94  1474.72  1477.84  1490.22  1490.42
                             1510.35  1510.98  1518.40  1520.83  1523.97
                             1571.25  1572.46  1577.34  1578.04  1695.43
                             1695.65  1775.43  1800.73  1803.17  1884.73
                             1885.81  1998.29  2003.87  2005.67  2008.93
                             2012.43  2017.30  2022.48  2026.89  2139.59
                             2140.86  2189.42  2192.21  2300.53  2333.89
                             2335.61  2366.23  2378.41  2382.15  2382.61
                             2513.52  2549.51  4295.96  4315.75  4325.60
                             4596.49  4597.46  4612.20  4614.08  4619.97
                             4622.16  4632.51  4633.48  4638.76  4640.11
                             5528.12  5549.73

 Zero-point correction=                           0.290987 (Hartree/Particle)
 Thermal correction to Energy=                    0.319942
 Thermal correction to Enthalpy=                  0.320887
 Thermal correction to Gibbs Free Energy=         0.228513
 Sum of electronic and zero-point Energies=          -1347.542450
 Sum of electronic and thermal Energies=             -1347.513494
 Sum of electronic and thermal Enthalpies=           -1347.512550
 Sum of electronic and thermal Free Energies=        -1347.604924

                     E (Thermal)             CV                S
                      KCal/Mol        Cal/Mol-Kelvin    Cal/Mol-Kelvin
 Total                  200.767            100.001            194.418
 Electronic               0.000              0.000              0.000
 Translational            0.889              2.981             44.241
 Rotational               0.889              2.981             35.514
 Vibrational            198.989             94.039            114.663
 Vibration     1          0.593              1.986              6.638
 Vibration     2          0.593              1.986              6.545
 Vibration     3          0.594              1.983              5.582
 Vibration     4          0.594              1.981              5.271
 Vibration     5          0.595              1.978              4.815
 Vibration     6          0.596              1.977              4.764
 Vibration     7          0.599              1.965              3.970
 Vibration     8          0.600              1.963              3.905
 Vibration     9          0.602              1.955              3.633
 Vibration    10          0.603              1.953              3.569
 Vibration    11          0.606              1.944              3.325
 Vibration    12          0.606              1.942              3.278
 Vibration    13          0.607              1.939              3.215
 Vibration    14          0.611              1.927              2.999
 Vibration    15          0.612              1.924              2.959
 Vibration    16          0.613              1.920              2.892
 Vibration    17          0.614              1.915              2.822
 Vibration    18          0.616              1.909              2.746
 Vibration    19          0.620              1.898              2.618
 Vibration    20          0.627              1.875              2.398
 Vibration    21          0.627              1.873              2.382
 Vibration    22          0.634              1.851              2.206
 Vibration    23          0.636              1.847              2.178
 Vibration    24          0.642              1.825              2.041
 Vibration    25          0.646              1.815              1.986
 Vibration    26          0.648              1.807              1.939
 Vibration    27          0.661              1.769              1.756
 Vibration    28          0.679              1.712              1.539
 Vibration    29          0.688              1.688              1.460
 Vibration    30          0.694              1.670              1.405
 Vibration    31          0.701              1.648              1.345
 Vibration    32          0.706              1.635              1.310
 Vibration    33          0.710              1.623              1.279
 Vibration    34          0.717              1.605              1.233
 Vibration    35          0.762              1.481              0.981
 Vibration    36          0.766              1.469              0.961
 Vibration    37          0.767              1.466              0.956
 Vibration    38          0.772              1.455              0.937
 Vibration    39          0.792              1.404              0.857
 Vibration    40          0.793              1.400              0.851
 Vibration    41          0.808              1.362              0.797
 Vibration    42          0.903              1.144              0.548

 Optimization completed.
    -- Stationary point found.
 Normal termination of Gaussian 16 at Thu May 11 17:00:27 2023.
