 Gaussian 16, Revision B.01,
 Gaussian 16:  ES64L-G16RevB.01 20-Dec-2017

 ----------------------------------------------------------------------
 # opt=(calcall,tight,cartesian) freq b3lyp/gen nosymm scf=(qc,maxcycle
 =1024) pseudo=read
 ----------------------------------------------------------------------

 -----------------
 TEAB_opt_freq_sin
 -----------------
 Symbolic Z-matrix:
 Charge =  0 Multiplicity = 1

 SCF Done:  E(RB3LYP) =  -2943.07147136     a.u. after    7 cycles
 SCF Done:  E(RB3LYP) =  -2943.07226269     a.u. after    7 cycles
 SCF Done:  E(RB3LYP) =  -2943.07311287     a.u. after    7 cycles
 SCF Done:  E(RB3LYP) =  -2943.07324219     a.u. after    7 cycles
 SCF Done:  E(RB3LYP) =  -2943.07325398     a.u. after    4 cycles
 SCF Done:  E(RB3LYP) =  -2943.07325513     a.u. after    3 cycles
 SCF Done:  E(RB3LYP) =  -2943.07325526     a.u. after    2 cycles
 SCF Done:  E(RB3LYP) =  -2943.07325526     a.u. after    2 cycles
 SCF Done:  E(RB3LYP) =  -2943.07325526     a.u. after    2 cycles
 SCF Done:  E(RB3LYP) =  -2943.07325526     a.u. after    2 cycles
 Optimization completed.
    -- Stationary point found.
 Normal termination of Gaussian 16 at Thu May 11 05:53:05 2023.

 ------------------------------------------------------------------
 #N Geom=AllCheck Guess=TCheck SCRF=Check GenChk RB3LYP/ChkBas Freq
 ------------------------------------------------------------------

 Structure from the checkpoint file:  "TEAB_opt_freq_sin.chk"
 -----------------
 TEAB_opt_freq_sin
 -----------------
 Charge =  0 Multiplicity = 1

                          Input orientation:
 ---------------------------------------------------------------------
 Center     Atomic      Atomic             Coordinates (Angstroms)
 Number     Number       Type             X           Y           Z
 ---------------------------------------------------------------------
      1          7           0       -0.147504    0.609017    0.139370
      2          6           0       -1.079000    1.403917    1.079467
      3          6           0       -2.494454    1.692200    0.589942
      4          1           0       -0.550138    2.345696    1.285710
      5          1           0       -1.132399    0.807831    1.994503
      6          1           0       -2.950251    2.334975    1.349844
      7          1           0       -2.523645    2.247861   -0.347237
      8          1           0       -3.119748    0.798968    0.498791
      9          6           0       -0.926711   -0.513042   -0.523565
     10          6           0       -0.125758   -1.455095   -1.418844
     11          1           0       -1.719567   -0.041591   -1.101991
     12          1           0       -1.400160   -1.069457    0.290821
     13          1           0       -0.824122   -2.187636   -1.835755
     14          1           0        0.340933   -0.936565   -2.259949
     15          1           0        0.643364   -2.011611   -0.878157
     16          6           0        0.958694   -0.013487    1.004825
     17          6           0        1.634943    0.917728    2.008708
     18          1           0        1.693799   -0.410532    0.303403
     19          1           0        0.490389   -0.859379    1.518075
     20          1           0        2.540136    0.412329    2.361420
     21          1           0        1.914109    1.888519    1.588487
     22          1           0        1.004593    1.116689    2.877714
     23          6           0        0.541749    1.518424   -0.892819
     24          6           0       -0.342806    2.168398   -1.947441
     25          1           0        1.305262    0.892106   -1.358526
     26          1           0        1.015068    2.321120   -0.313385
     27          1           0        0.333297    2.647703   -2.662513
     28          1           0       -0.972067    1.469381   -2.507920
     29          1           0       -0.950059    2.967752   -1.520642
     30         35           0        0.800291    4.430557    1.007088
 ---------------------------------------------------------------------

 SCF Done:  E(RB3LYP) =  -2943.07325526     a.u. after    1 cycles

 Alpha  occ. eigenvalues -- -482.52922 -61.61389 -56.18124 -56.18100 -56.18093
 Alpha  occ. eigenvalues --  -14.47916 -10.27886 -10.27075 -10.24877 -10.24633
 Alpha  occ. eigenvalues --  -10.23259 -10.20794 -10.20153 -10.19639  -8.38376
 Alpha  occ. eigenvalues --   -6.39189  -6.39170  -6.39145  -2.51297  -2.51295
 Alpha  occ. eigenvalues --   -2.51274  -2.51258  -2.51255  -1.02859  -0.82517
 Alpha  occ. eigenvalues --   -0.80883  -0.80343  -0.76162  -0.69609  -0.67787
 Alpha  occ. eigenvalues --   -0.66769  -0.60645  -0.59667  -0.54622  -0.54482
 Alpha  occ. eigenvalues --   -0.52506  -0.50669  -0.48788  -0.46536  -0.45693
 Alpha  occ. eigenvalues --   -0.44434  -0.42978  -0.42434  -0.41789  -0.41519
 Alpha  occ. eigenvalues --   -0.41009  -0.40495  -0.39476  -0.38697  -0.37955
 Alpha  occ. eigenvalues --   -0.37092  -0.36644  -0.17838  -0.17657  -0.17553
 Alpha virt. eigenvalues --   -0.03218  -0.01565  -0.01430   0.00410   0.01441
 Alpha virt. eigenvalues --    0.01916   0.02537   0.02804   0.03665   0.04278
 Alpha virt. eigenvalues --    0.05124   0.05381   0.05908   0.06522   0.06794

 Mulliken charges:
               1
     1  N   -0.688652
     2  C    0.043482
     3  C   -0.585960
     4  H    0.243107
     5  H    0.156653
     6  H    0.181589
     7  H    0.165445
     8  H    0.144316
     9  C    0.062574
    10  C   -0.596485
    11  H    0.184166
    12  H    0.173650
    13  H    0.166217
    14  H    0.172643
    15  H    0.165170
    16  C    0.156098
    17  C   -0.589054
    18  H    0.165172
    19  H    0.168416
    20  H    0.148161
    21  H    0.228046
    22  H    0.166149
    23  C    0.059738
    24  C   -0.579703
    25  H    0.145403
    26  H    0.225800
    27  H    0.171527
    28  H    0.132561
    29  H    0.197007
    30  Br  -0.783238
 Sum of Mulliken charges =  -0.00000

 Dipole moment (field-independent basis, Debye):
    X=             -3.3946    Y=            -13.3752    Z=             -3.2427  Tot=             14.1751
 Quadrupole moment (field-independent basis, Debye-Ang):
   XX=            -78.6286   YY=           -146.1624   ZZ=            -79.4789
   XY=            -14.0383   XZ=             -2.7755   YZ=            -15.7896

  Exact polarizability: 126.953   4.474 151.525   4.978   8.385 128.859
 Approx polarizability: 178.088   3.288 193.446   0.646   3.864 178.637

                      1                      2                      3
                      A                      A                      A
 Frequencies --     49.5621                64.0603                84.2300
 Red. masses --      3.2572                 3.4000                 2.7301
 Frc consts  --      0.0047                 0.0082                 0.0114
 IR Inten    --      2.7025                 3.1900                 2.8097

                      4                      5                      6
                      A                      A                      A
 Frequencies --    104.9202               121.4496               127.2494
 Red. masses --      3.9708                 1.8606                 1.6779
 Frc consts  --      0.0258                 0.0162                 0.0160
 IR Inten    --     17.4021                 2.1336                 2.8564

                      7                      8                      9
                      A                      A                      A
 Frequencies --    150.4606               202.9564               214.3416
 Red. masses --      1.8036                 1.5636                 1.3302
 Frc consts  --      0.0241                 0.0379                 0.0360
 IR Inten    --      7.6177                 1.4238                 1.5238

                     10                     11                     12
                      A                      A                      A
 Frequencies --    244.1881               250.4044               254.5615
 Red. masses --      1.7412                 1.6007                 1.5179
 Frc consts  --      0.0612                 0.0591                 0.0580
 IR Inten    --      0.3548                 0.0967                 0.2135

                     13                     14                     15
                      A                      A                      A
 Frequencies --    279.5646               332.3777               361.5994
 Red. masses --      1.5562                 2.0086                 2.7711
 Frc consts  --      0.0717                 0.1307                 0.2135
 IR Inten    --      0.1729                 0.8555                 0.1637

                     16                     17                     18
                      A                      A                      A
 Frequencies --    382.1587               389.9868               449.8771
 Red. masses --      2.4701                 2.3128                 2.3143
 Frc consts  --      0.2125                 0.2072                 0.2760
 IR Inten    --      3.6930                 4.6501                 0.7387

                     19                     20                     21
                      A                      A                      A
 Frequencies --    505.7327               535.1525               653.0442
 Red. masses --      2.6778                 2.9030                 2.7941
 Frc consts  --      0.4035                 0.4898                 0.7021
 IR Inten    --      3.0018                 1.9268                 1.1715

                     22                     23                     24
                      A                      A                      A
 Frequencies --    787.3322               797.7062               820.5265
 Red. masses --      1.4635                 1.3667                 1.1807
 Frc consts  --      0.5345                 0.5124                 0.4684
 IR Inten    --     19.7953                18.6347                 6.7448

                     25                     26                     27
                      A                      A                      A
 Frequencies --    824.7591               882.3105               898.5109
 Red. masses --      1.1550                 1.5656                 1.9267
 Frc consts  --      0.4629                 0.7181                 0.9165
 IR Inten    --     10.8783                 1.8200                 4.4460

                     28                     29                     30
                      A                      A                      A
 Frequencies --    910.4678              1017.0604              1024.0556
 Red. masses --      1.9079                 2.0367                 2.4157
 Frc consts  --      0.9318                 1.2413                 1.4926
 IR Inten    --      1.0943                18.7076                17.6027

                     31                     32                     33
                      A                      A                      A
 Frequencies --   1027.8288              1045.1556              1084.5532
 Red. masses --      2.4705                 3.0755                 1.7469
 Frc consts  --      1.5377                 1.9794                 1.2106
 IR Inten    --      7.3163                18.4696                 3.2975

                     34                     35                     36
                      A                      A                      A
 Frequencies --   1093.3916              1111.6478              1156.8114
 Red. masses --      1.8000                 1.6600                 2.0131
 Frc consts  --      1.2679                 1.2086                 1.5872
 IR Inten    --      0.9725                 3.0240                 7.6757

                     37                     38                     39
                      A                      A                      A
 Frequencies --   1157.3004              1193.5289              1210.9221
 Red. masses --      1.6822                 2.0854                 1.8987
 Frc consts  --      1.3274                 1.7503                 1.6403
 IR Inten    --      2.0392                13.0547                 7.8728

                     40                     41                     42
                      A                      A                      A
 Frequencies --   1222.4884              1325.2417              1336.4516
 Red. masses --      1.8722                 1.0956                 1.1098
 Frc consts  --      1.6485                 1.1337                 1.1679
 IR Inten    --      5.7550                 3.8821                 3.1043

                     43                     44                     45
                      A                      A                      A
 Frequencies --   1375.7830              1384.3521              1406.8025
 Red. masses --      1.1184                 1.1754                 1.2427
 Frc consts  --      1.2472                 1.3272                 1.4490
 IR Inten    --      5.2396                 8.2393                 3.5183

                     46                     47                     48
                      A                      A                      A
 Frequencies --   1411.2164              1419.0995              1429.0936
 Red. masses --      1.2006                 1.2413                 1.2098
 Frc consts  --      1.4087                 1.4728                 1.4558
 IR Inten    --      3.2481                 5.5058                10.0232

                     49                     50                     51
                      A                      A                      A
 Frequencies --   1432.4215              1439.2443              1448.6481
 Red. masses --      1.2578                 1.2381                 1.2454
 Frc consts  --      1.5206                 1.5111                 1.5398
 IR Inten    --     24.7905                 5.1391                 3.6552

                     52                     53                     54
                      A                      A                      A
 Frequencies --   1467.4267              1482.5970              1488.7926
 Red. masses --      1.1812                 1.0673                 1.0544
 Frc consts  --      1.4987                 1.3823                 1.3770
 IR Inten    --     14.4368                 0.1943                 5.2004

                     55                     56                     57
                      A                      A                      A
 Frequencies --   1492.2603              1495.9424              1505.0431
 Red. masses --      1.0530                 1.0420                 1.0464
 Frc consts  --      1.3816                 1.3739                 1.3965
 IR Inten    --      0.7168                21.3472                23.3045

                     58                     59                     60
                      A                      A                      A
 Frequencies --   1506.8297              1508.6832              1511.4828
 Red. masses --      1.0593                 1.0540                 1.0536
 Frc consts  --      1.4171                 1.4134                 1.4182
 IR Inten    --     11.5059                16.2036                 1.4677

                     61                     62                     63
                      A                      A                      A
 Frequencies --   1517.9159              1518.0591              1524.3792
 Red. masses --      1.0675                 1.0506                 1.0740
 Frc consts  --      1.4492                 1.4265                 1.4704
 IR Inten    --      5.0527                10.6158                 6.9760

                     64                     65                     66
                      A                      A                      A
 Frequencies --   1530.9140              2976.3893              3010.5065
 Red. masses --      1.0995                 1.0774                 1.0721
 Frc consts  --      1.5183                 5.6234                 5.7250
 IR Inten    --     22.7550               171.7265               301.3495

                     67                     68                     69
                      A                      A                      A
 Frequencies --   3051.4333              3057.0526              3062.9324
 Red. masses --      1.0392                 1.0390                 1.0411
 Frc consts  --      5.7011                 5.7210                 5.7544
 IR Inten    --     53.7677                14.2083                19.4131

                     70                     71                     72
                      A                      A                      A
 Frequencies --   3064.8065              3071.4212              3085.8892
 Red. masses --      1.0377                 1.0650                 1.0692
 Frc consts  --      5.7429                 5.9196                 5.9988
 IR Inten    --      8.4662                31.8887                15.4485

                     73                     74                     75
                      A                      A                      A
 Frequencies --   3104.2415              3118.4977              3118.9655
 Red. masses --      1.0956                 1.0979                 1.1012
 Frc consts  --      6.2204                 6.2908                 6.3113
 IR Inten    --     18.5884                11.2447                 8.7016

                     76                     77                     78
                      A                      A                      A
 Frequencies --   3121.7907              3124.2281              3127.3729
 Red. masses --      1.1016                 1.1026                 1.1012
 Frc consts  --      6.3250                 6.3409                 6.3454
 IR Inten    --      7.6562                10.1629                 3.4905

                     79                     80                     81
                      A                      A                      A
 Frequencies --   3134.9267              3144.8246              3152.6631
 Red. masses --      1.0993                 1.1009                 1.1021
 Frc consts  --      6.3652                 6.4150                 6.4540
 IR Inten    --     19.2155                 9.0942                24.6496

                     82                     83                     84
                      A                      A                      A
 Frequencies --   3157.4902              3170.1320              3174.0817
 Red. masses --      1.1014                 1.0990                 1.0974
 Frc consts  --      6.4695                 6.5073                 6.5142
 IR Inten    --     11.5311                16.1302                 4.4959

 - Thermochemistry -
 -------------------
 Temperature   298.150 Kelvin.  Pressure   1.00000 Atm.
 Atom     1 has atomic number  7 and mass  14.00307

 Molecular mass:   209.07791 amu.
 Principal axes and moments of inertia in atomic units:
                           1         2         3
     Eigenvalues --  1453.690714035.947284306.53888
           X            0.23357   0.68004  -0.69498
           Y            0.92569  -0.37425  -0.05509
           Z            0.29756   0.63046   0.71692
 This molecule is an asymmetric top.
 Rotational symmetry number  1.
 Warning -- assumption of classical behavior for rotation
           may cause significant error
 Rotational temperatures (Kelvin)      0.05958     0.02146     0.02011
 Rotational constants (GHZ):           1.24149     0.44717     0.41907
 Zero-point vibrational energy     729797.2 (Joules/Mol)
                                  174.42571 (Kcal/Mol)
 Warning -- explicit consideration of  20 degrees of freedom as
           vibrations may cause significant error
 Vibrational temperatures:     71.31    92.17   121.19   150.96   174.74
          (Kelvin)            183.08   216.48   292.01   308.39   351.33
                              360.28   366.26   402.23   478.22   520.26
                              549.84   561.10   647.27   727.64   769.97
                              939.58  1132.80  1147.72  1180.55  1186.64
                             1269.45  1292.76  1309.96  1463.32  1473.39
                             1478.82  1503.75  1560.43  1573.15  1599.41
                             1664.39  1665.10  1717.22  1742.25  1758.89
                             1906.73  1922.86  1979.44  1991.77  2024.07
                             2030.43  2041.77  2056.15  2060.93  2070.75
                             2084.28  2111.30  2133.13  2142.04  2147.03
                             2152.33  2165.42  2167.99  2170.66  2174.69
                             2183.94  2184.15  2193.24  2202.64  4282.36
                             4331.45  4390.33  4398.42  4406.88  4409.57
                             4419.09  4439.91  4466.31  4486.82  4487.50
                             4491.56  4495.07  4499.59  4510.46  4524.70
                             4535.98  4542.92  4561.11  4566.80

 Zero-point correction=                           0.277965 (Hartree/Particle)
 Thermal correction to Energy=                    0.292056
 Thermal correction to Enthalpy=                  0.293000
 Thermal correction to Gibbs Free Energy=         0.236692
 Sum of electronic and zero-point Energies=          -2942.795290
 Sum of electronic and thermal Energies=             -2942.781199
 Sum of electronic and thermal Enthalpies=           -2942.780255
 Sum of electronic and thermal Free Energies=        -2942.836564

                     E (Thermal)             CV                S
                      KCal/Mol        Cal/Mol-Kelvin    Cal/Mol-Kelvin
 Total                  183.268             50.594            118.511
 Electronic               0.000              0.000              0.000
 Translational            0.889              2.981             41.916
 Rotational               0.889              2.981             31.602
 Vibrational            181.490             44.632             44.992
 Vibration     1          0.595              1.978              4.835
 Vibration     2          0.597              1.971              4.328
 Vibration     3          0.601              1.960              3.790
 Vibration     4          0.605              1.945              3.361
 Vibration     5          0.609              1.931              3.077
 Vibration     6          0.611              1.926              2.987
 Vibration     7          0.618              1.902              2.666
 Vibration     8          0.639              1.836              2.106
 Vibration     9          0.644              1.819              2.006
 Vibration    10          0.660              1.772              1.772
 Vibration    11          0.663              1.762              1.728
 Vibration    12          0.665              1.755              1.699
 Vibration    13          0.680              1.711              1.536
 Vibration    14          0.714              1.611              1.249
 Vibration    15          0.736              1.551              1.115
 Vibration    16          0.752              1.508              1.031
 Vibration    17          0.758              1.492              1.000
 Vibration    18          0.809              1.361              0.796
 Vibration    19          0.861              1.237              0.644
 Vibration    20          0.890              1.172              0.576

 Optimization completed.
    -- Stationary point found.
 Normal termination of Gaussian 16 at Thu May 11 05:55:11 2023.
