 Gaussian 16, Revision B.01,
 Gaussian 16:  ES64L-G16RevB.01 20-Dec-2017

 ----------------------------------------------------------------------
 # opt=(calcall,tight,qst3,cartesian) freq b3lyp/gen nosymm scf=(qc,max
 cycle=1024) pseudo=read
 ----------------------------------------------------------------------

 ----------------
 AGE_CO2_opt_freq
 ----------------
 Symbolic Z-matrix:
 Charge =  0 Multiplicity = 1

 ----------------
 AGC_opt_freq_sin
 ----------------
 Symbolic Z-matrix:
 Charge =  0 Multiplicity = 1

 ------------------------
 AGE_CO2_TS_QST3_opt_freq
 ------------------------
 Symbolic Z-matrix:
 Charge =  0 Multiplicity = 1

 SCF Done:  E(RB3LYP) =  -573.428216894     a.u. after   10 cycles
 SCF Done:  E(RB3LYP) =  -573.470231060     a.u. after   15 cycles
 SCF Done:  E(RB3LYP) =  -573.497230487     a.u. after   14 cycles
 SCF Done:  E(RB3LYP) =  -573.520510225     a.u. after   14 cycles
 SCF Done:  E(RB3LYP) =  -573.530273369     a.u. after   13 cycles
 SCF Done:  E(RB3LYP) =  -573.529354965     a.u. after   17 cycles
 SCF Done:  E(RB3LYP) =  -573.533049673     a.u. after   16 cycles
 SCF Done:  E(RB3LYP) =  -573.536919345     a.u. after   13 cycles
 SCF Done:  E(RB3LYP) =  -573.538135323     a.u. after   13 cycles
 SCF Done:  E(RB3LYP) =  -573.538350636     a.u. after   11 cycles
 SCF Done:  E(RB3LYP) =  -573.538355054     a.u. after    5 cycles
 SCF Done:  E(RB3LYP) =  -573.538355054     a.u. after    2 cycles
 Optimization completed.
    -- Stationary point found.
 ******    1 imaginary frequencies (negative Signs) ******
    1 imaginary frequencies ignored.
 Normal termination of Gaussian 16 at Mon Aug  7 15:01:48 2023.

 ------------------------------------------------------------------
 #N Geom=AllCheck Guess=TCheck SCRF=Check GenChk RB3LYP/ChkBas Freq
 ------------------------------------------------------------------

 Structure from the checkpoint file:  "AGE_CO2_TS_QST3_opt_freq.chk"
 ----------------
 AGE_CO2_opt_freq
 ----------------
 Charge =  0 Multiplicity = 1

                          Input orientation:
 ---------------------------------------------------------------------
 Center     Atomic      Atomic             Coordinates (Angstroms)
 Number     Number       Type             X           Y           Z
 ---------------------------------------------------------------------
      1          6           0      -10.748870   -2.605289   -1.274111
      2          6           0       -9.437196   -2.512047   -1.505028
      3          6           0       -8.390062   -2.585968   -0.435284
      4          8           0       -7.551953   -1.429153   -0.527043
      5          6           0       -6.476148   -1.445306    0.391860
      6          6           0       -5.749834   -0.112417    0.266326
      7          6           0       -4.956763    0.111198   -0.937961
      8          8           0       -4.530436   -0.151512    1.007894
      9          1           0      -11.471578   -2.578791   -2.084179
     10          1           0      -11.145533   -2.716054   -0.267256
     11          1           0       -9.064510   -2.393309   -2.521593
     12          1           0       -7.770033   -3.488818   -0.569558
     13          1           0       -8.852675   -2.639073    0.561857
     14          1           0       -5.778997   -2.271526    0.183698
     15          1           0       -6.825660   -1.546968    1.430488
     16          1           0       -6.396428    0.728234    0.532809
     17          1           0       -4.987102    1.003892   -1.545326
     18          1           0       -4.312856   -0.705401   -1.250854
     19          6           0       -3.751070    1.324752    1.159029
     20          8           0       -3.217853    1.407109    2.225049
     21          8           0       -3.918622    1.918243    0.088061
 ---------------------------------------------------------------------

 SCF Done:  E(RB3LYP) =  -573.538355054     a.u. after    1 cycles

 Alpha  occ. eigenvalues --  -19.19843 -19.18820 -19.15911 -19.14709 -10.34741
 Alpha  occ. eigenvalues --  -10.32312 -10.28895 -10.27220 -10.26322 -10.21463
 Alpha  occ. eigenvalues --  -10.20675  -1.10438  -1.07341  -1.03933  -1.01967
 Alpha  occ. eigenvalues --   -0.82570  -0.79923  -0.74628  -0.68854  -0.63445
 Alpha  occ. eigenvalues --   -0.58815  -0.57638  -0.54356  -0.52191  -0.51898
 Alpha  occ. eigenvalues --   -0.49880  -0.48795  -0.47165  -0.45856  -0.45074
 Alpha  occ. eigenvalues --   -0.44093  -0.43838  -0.40816  -0.40433  -0.38169
 Alpha  occ. eigenvalues --   -0.35837  -0.33942  -0.30469  -0.30228  -0.29801
 Alpha  occ. eigenvalues --   -0.28763  -0.27845
 Alpha virt. eigenvalues --   -0.14456  -0.02776  -0.00571   0.00516   0.00693
 Alpha virt. eigenvalues --    0.01102   0.02198   0.02540   0.03471   0.04478
 Alpha virt. eigenvalues --    0.04778   0.05044   0.06172   0.06435   0.06648

 Mulliken charges:
               1
     1  C   -0.293810
     2  C    0.001919
     3  C   -0.185893
     4  O   -0.322987
     5  C   -0.005597
     6  C   -0.256840
     7  C    0.099145
     8  O   -0.357682
     9  H    0.143232
    10  H    0.136401
    11  H    0.139910
    12  H    0.131592
    13  H    0.126421
    14  H    0.138177
    15  H    0.149101
    16  H    0.179200
    17  H    0.231513
    18  H    0.201142
    19  C    0.670177
    20  O   -0.434106
    21  O   -0.491015
 Sum of Mulliken charges =  -0.00000

 Dipole moment (field-independent basis, Debye):
    X=             -4.5634    Y=             -4.3754    Z=             -3.8952  Tot=              7.4258
 Quadrupole moment (field-independent basis, Debye-Ang):
   XX=            -17.7810   YY=            -67.5280   ZZ=            -68.9018
   XY=             21.7856   XZ=             11.4568   YZ=             -3.0511

  Exact polarizability: 122.332  24.003  93.836  16.789   6.515 100.799
 Approx polarizability: 154.426  16.449 130.182  17.768  -2.551 165.437

 ******    1 imaginary frequencies (negative Signs) ******

                      1                      2                      3
                      A                      A                      A
 Frequencies --   -666.0313                31.2334                47.0035
 Red. masses --      3.9672                 5.0441                 3.3958
 Frc consts  --      1.0369                 0.0029                 0.0044
 IR Inten    --     34.5847                 4.1534                 0.7862

                      4                      5                      6
                      A                      A                      A
 Frequencies --     70.8559                78.5823                93.8606
 Red. masses --      3.0224                 5.3941                 4.2989
 Frc consts  --      0.0089                 0.0196                 0.0223
 IR Inten    --      0.9436                 1.5116                 6.9551

                      7                      8                      9
                      A                      A                      A
 Frequencies --    126.2420               141.6368               198.4965
 Red. masses --      4.3710                 3.6053                 3.7090
 Frc consts  --      0.0410                 0.0426                 0.0861
 IR Inten    --     18.0335                17.6602                 8.6735

                     10                     11                     12
                      A                      A                      A
 Frequencies --    283.0188               341.7418               383.9716
 Red. masses --      3.5026                 4.3520                 3.4193
 Frc consts  --      0.1653                 0.2995                 0.2970
 IR Inten    --      4.7375               125.6884                20.2068

                     13                     14                     15
                      A                      A                      A
 Frequencies --    417.8341               456.5167               506.4409
 Red. masses --      2.8582                 2.8704                 3.2134
 Frc consts  --      0.2940                 0.3525                 0.4856
 IR Inten    --     41.4769                 0.2594               101.5316

                     16                     17                     18
                      A                      A                      A
 Frequencies --    537.8940               646.1271               662.3278
 Red. masses --      6.7878                 3.2988                 2.2687
 Frc consts  --      1.1571                 0.8114                 0.5864
 IR Inten    --    142.0796               108.2253                14.2709

                     19                     20                     21
                      A                      A                      A
 Frequencies --    737.0738               753.9346               891.8700
 Red. masses --      3.9518                 1.8119                 1.7867
 Frc consts  --      1.2649                 0.6068                 0.8374
 IR Inten    --      9.8787                14.5086                14.8986

                     22                     23                     24
                      A                      A                      A
 Frequencies --    925.2667               940.4555               964.4012
 Red. masses --      1.3506                 1.5262                 1.3307
 Frc consts  --      0.6813                 0.7953                 0.7292
 IR Inten    --     10.5102                12.0855                50.7694

                     25                     26                     27
                      A                      A                      A
 Frequencies --    984.7307               991.1100              1021.6803
 Red. masses --      2.4493                 2.3721                 1.1810
 Frc consts  --      1.3994                 1.3728                 0.7263
 IR Inten    --      8.7629                13.4346                14.8708

                     28                     29                     30
                      A                      A                      A
 Frequencies --   1040.9280              1068.6216              1138.7833
 Red. masses --      4.5579                 1.4781                 7.4369
 Frc consts  --      2.9098                 0.9945                 5.6823
 IR Inten    --     65.6895                17.3774               279.8317

                     31                     32                     33
                      A                      A                      A
 Frequencies --   1155.9265              1178.3012              1208.9535
 Red. masses --      1.9734                 1.9061                 1.6596
 Frc consts  --      1.5536                 1.5592                 1.4291
 IR Inten    --      4.5336                 8.0227                 3.2453

                     34                     35                     36
                      A                      A                      A
 Frequencies --   1251.7324              1259.5344              1266.1174
 Red. masses --      1.4481                 2.7731                 1.1623
 Frc consts  --      1.3368                 2.5920                 1.0978
 IR Inten    --     11.1982                52.6028                 7.4745

                     37                     38                     39
                      A                      A                      A
 Frequencies --   1288.4131              1315.3293              1365.1632
 Red. masses --      1.4522                 1.2596                 1.2635
 Frc consts  --      1.4203                 1.2840                 1.3873
 IR Inten    --      1.9741                 0.8562                54.1099

                     40                     41                     42
                      A                      A                      A
 Frequencies --   1387.8641              1425.3813              1468.7706
 Red. masses --      1.4671                 1.4440                 1.2580
 Frc consts  --      1.6650                 1.7286                 1.5990
 IR Inten    --     11.9014                 6.2686                13.7471

                     43                     44                     45
                      A                      A                      A
 Frequencies --   1498.5657              1508.3494              1528.2804
 Red. masses --      1.2544                 1.1217                 1.1051
 Frc consts  --      1.6597                 1.5036                 1.5207
 IR Inten    --      2.9095                 4.1335                 4.4355

                     46                     47                     48
                      A                      A                      A
 Frequencies --   1718.2779              1993.6846              2971.6357
 Red. masses --      4.6016                12.7227                 1.0616
 Frc consts  --      8.0048                29.7950                 5.5231
 IR Inten    --      1.8340               790.6611                38.5262

                     49                     50                     51
                      A                      A                      A
 Frequencies --   2997.6798              3023.9328              3040.4174
 Red. masses --      1.0555                 1.0987                 1.1075
 Frc consts  --      5.5883                 5.9191                 6.0322
 IR Inten    --     41.8120                41.3853                20.0436

                     52                     53                     54
                      A                      A                      A
 Frequencies --   3107.5380              3151.1833              3167.0854
 Red. masses --      1.0879                 1.0591                 1.0924
 Frc consts  --      6.1895                 6.1962                 6.4559
 IR Inten    --     11.1256                 9.1881                 6.0934

                     55                     56                     57
                      A                      A                      A
 Frequencies --   3190.5325              3239.8066              3323.6524
 Red. masses --      1.0552                 1.1157                 1.1185
 Frc consts  --      6.3287                 6.8996                 7.2801
 IR Inten    --      0.4639                11.9947                 1.4175

 - Thermochemistry -
 -------------------
 Temperature   298.150 Kelvin.  Pressure   1.00000 Atm.
 Atom     1 has atomic number  6 and mass  12.00000

 Molecular mass:   158.05791 amu.
 Principal axes and moments of inertia in atomic units:
                           1         2         3
     Eigenvalues --   438.085135075.250975266.52552
           X            0.80049  -0.01520  -0.59916
           Y            0.52039  -0.47834   0.70738
           Z            0.29735   0.87804   0.37499
 This molecule is an asymmetric top.
 Rotational symmetry number  1.
 Warning -- assumption of classical behavior for rotation
           may cause significant error
 Rotational temperatures (Kelvin)      0.19771     0.01707     0.01645
 Rotational constants (GHZ):           4.11961     0.35560     0.34268
    1 imaginary frequencies ignored.
 Zero-point vibrational energy     427753.2 (Joules/Mol)
                                  102.23547 (Kcal/Mol)
 Warning -- explicit consideration of  15 degrees of freedom as
           vibrations may cause significant error
 Vibrational temperatures:     44.94    67.63   101.95   113.06   135.04
          (Kelvin)            181.63   203.78   285.59   407.20   491.69
                              552.45   601.17   656.83   728.66   773.91
                              929.63   952.94  1060.48  1084.74  1283.20
                             1331.25  1353.11  1387.56  1416.81  1425.99
                             1469.97  1497.66  1537.51  1638.46  1663.12
                             1695.31  1739.41  1800.96  1812.19  1821.66
                             1853.74  1892.47  1964.17  1996.83  2050.81
                             2113.23  2156.10  2170.18  2198.85  2472.22
                             2868.47  4275.52  4312.99  4350.76  4374.48
                             4471.05  4533.85  4556.73  4590.46  4661.36
                             4781.99

 Zero-point correction=                           0.162923 (Hartree/Particle)
 Thermal correction to Energy=                    0.174801
 Thermal correction to Enthalpy=                  0.175746
 Thermal correction to Gibbs Free Energy=         0.122803
 Sum of electronic and zero-point Energies=           -573.375432
 Sum of electronic and thermal Energies=              -573.363554
 Sum of electronic and thermal Enthalpies=            -573.362609
 Sum of electronic and thermal Free Energies=         -573.415552

                     E (Thermal)             CV                S
                      KCal/Mol        Cal/Mol-Kelvin    Cal/Mol-Kelvin
 Total                  109.690             40.798            111.427
 Electronic               0.000              0.000              0.000
 Translational            0.889              2.981             41.083
 Rotational               0.889              2.981             30.838
 Vibrational            107.912             34.837             39.506
 Vibration     1          0.594              1.983              5.750
 Vibration     2          0.595              1.979              4.940
 Vibration     3          0.598              1.968              4.129
 Vibration     4          0.600              1.964              3.926
 Vibration     5          0.603              1.954              3.578
 Vibration     6          0.611              1.927              3.003
 Vibration     7          0.615              1.912              2.782
 Vibration     8          0.637              1.842              2.147
 Vibration     9          0.682              1.705              1.515
 Vibration    10          0.721              1.592              1.204
 Vibration    11          0.753              1.504              1.023
 Vibration    12          0.781              1.431              0.899
 Vibration    13          0.815              1.346              0.776
 Vibration    14          0.862              1.236              0.642
 Vibration    15          0.893              1.166              0.570

 Optimization completed.
    -- Stationary point found.
 Normal termination of Gaussian 16 at Mon Aug  7 15:02:42 2023.
