 Gaussian 16, Revision B.01,
 Gaussian 16:  ES64L-G16RevB.01 20-Dec-2017

 ----------------------------------------------------------------------
 # opt=(calcall,tight,cartesian) freq b3lyp/gen nosymm scf=(qc,maxcycle
 =1024) pseudo=read
 ----------------------------------------------------------------------

 ----------------
 AGC_opt_freq_sin
 ----------------
 Symbolic Z-matrix:
 Charge =  0 Multiplicity = 1

 SCF Done:  E(RB3LYP) =  -573.651099941     a.u. after    8 cycles
 SCF Done:  E(RB3LYP) =  -573.651853761     a.u. after    7 cycles
 SCF Done:  E(RB3LYP) =  -573.652353285     a.u. after    9 cycles
 SCF Done:  E(RB3LYP) =  -573.652571369     a.u. after    7 cycles
 SCF Done:  E(RB3LYP) =  -573.652619346     a.u. after    9 cycles
 SCF Done:  E(RB3LYP) =  -573.652680811     a.u. after    4 cycles
 SCF Done:  E(RB3LYP) =  -573.652685940     a.u. after    5 cycles
 SCF Done:  E(RB3LYP) =  -573.652686827     a.u. after    3 cycles
 SCF Done:  E(RB3LYP) =  -573.652686853     a.u. after    2 cycles
 SCF Done:  E(RB3LYP) =  -573.652686853     a.u. after    2 cycles
 Optimization completed.
    -- Stationary point found.
 Normal termination of Gaussian 16 at Thu May 11 06:06:29 2023.

 ------------------------------------------------------------------
 #N Geom=AllCheck Guess=TCheck SCRF=Check GenChk RB3LYP/ChkBas Freq
 ------------------------------------------------------------------

 Structure from the checkpoint file:  "AGC_opt_freq_sin.chk"
 ----------------
 AGC_opt_freq_sin
 ----------------
 Charge =  0 Multiplicity = 1

                          Input orientation:
 ---------------------------------------------------------------------
 Center     Atomic      Atomic             Coordinates (Angstroms)
 Number     Number       Type             X           Y           Z
 ---------------------------------------------------------------------
      1          6           0       -1.228916    4.606563   -4.026879
      2          6           0       -1.254695    4.191904   -2.758189
      3          6           0       -0.404780    4.772012   -1.668059
      4          8           0        0.300133    3.712774   -1.018661
      5          6           0        1.050071    4.142840    0.094692
      6          6           0        1.822896    2.965643    0.655085
      7          6           0        2.464207    3.240104    2.025746
      8          8           0        2.969016    2.659518   -0.167261
      9          1           0       -1.885185    4.177419   -4.778144
     10          1           0       -0.550947    5.389987   -4.358495
     11          1           0       -1.932678    3.396447   -2.451919
     12          1           0       -1.039604    5.289560   -0.926922
     13          1           0        0.304810    5.507935   -2.076323
     14          1           0        0.383546    4.537161    0.883886
     15          1           0        1.757952    4.941392   -0.180776
     16          1           0        1.179518    2.078988    0.669908
     17          1           0        1.916397    2.796473    2.858737
     18          1           0        2.612930    4.310903    2.211700
     19          8           0        5.096220    1.966108    0.218688
     20          6           0        4.041852    2.369907    0.616486
     21          8           0        3.747416    2.606843    1.927975
 ---------------------------------------------------------------------

 SCF Done:  E(RB3LYP) =  -573.652686853     a.u. after    1 cycles

 Alpha  occ. eigenvalues --  -19.21799 -19.21542 -19.17792 -19.14958 -10.37230
 Alpha  occ. eigenvalues --  -10.28222 -10.27982 -10.26698 -10.25546 -10.20694
 Alpha  occ. eigenvalues --  -10.19906  -1.17005  -1.06809  -1.05748  -1.05034
 Alpha  occ. eigenvalues --   -0.83040  -0.79929  -0.73530  -0.68592  -0.65554
 Alpha  occ. eigenvalues --   -0.62123  -0.58144  -0.56432  -0.52908  -0.51898
 Alpha  occ. eigenvalues --   -0.51274  -0.50468  -0.47151  -0.45975  -0.45376
 Alpha  occ. eigenvalues --   -0.44692  -0.43085  -0.40926  -0.39288  -0.38956
 Alpha  occ. eigenvalues --   -0.37211  -0.35013  -0.32566  -0.32037  -0.30596
 Alpha  occ. eigenvalues --   -0.29286  -0.27916
 Alpha virt. eigenvalues --   -0.01960  -0.01034   0.00352   0.00639   0.01068
 Alpha virt. eigenvalues --    0.01980   0.02452   0.03052   0.03621   0.04671
 Alpha virt. eigenvalues --    0.04832   0.05933   0.06170   0.06937   0.07803

 Mulliken charges:
               1
     1  C   -0.294048
     2  C    0.027105
     3  C   -0.166611
     4  O   -0.344378
     5  C   -0.083224
     6  C    0.074655
     7  C   -0.141462
     8  O   -0.372040
     9  H    0.141383
    10  H    0.134939
    11  H    0.139091
    12  H    0.125367
    13  H    0.124417
    14  H    0.122327
    15  H    0.140883
    16  H    0.166480
    17  H    0.163331
    18  H    0.150327
    19  O   -0.453787
    20  C    0.714723
    21  O   -0.369478
 Sum of Mulliken charges =  -0.00000

 Dipole moment (field-independent basis, Debye):
    X=             -5.2959    Y=              3.3061    Z=              1.7742  Tot=              6.4904
 Quadrupole moment (field-independent basis, Debye-Ang):
   XX=            -99.2931   YY=            -42.3512   ZZ=            -60.8785
   XY=             -5.0358   XZ=              3.0748   YZ=              3.8323

  Exact polarizability: 102.661 -10.755  79.555  10.846  -4.866 109.956
 Approx polarizability: 131.503  -7.350 112.119  -1.658  -3.874 146.911

                      1                      2                      3
                      A                      A                      A
 Frequencies --     35.8117                50.7735                68.7214
 Red. masses --      5.4262                 2.3338                 5.5884
 Frc consts  --      0.0041                 0.0035                 0.0155
 IR Inten    --      1.4656                 0.8389                 0.5292

                      4                      5                      6
                      A                      A                      A
 Frequencies --    102.9141               119.9774               154.1864
 Red. masses --      3.4908                 4.0148                 3.1538
 Frc consts  --      0.0218                 0.0340                 0.0442
 IR Inten    --      2.6857                 4.1961                 2.6727

                      7                      8                      9
                      A                      A                      A
 Frequencies --    185.0871               256.2077               287.8244
 Red. masses --      3.5509                 2.6705                 4.7019
 Frc consts  --      0.0717                 0.1033                 0.2295
 IR Inten    --      0.8054                 0.2746                 1.0713

                     10                     11                     12
                      A                      A                      A
 Frequencies --    389.1426               461.4365               486.9241
 Red. masses --      2.7653                 2.5210                 2.8318
 Frc consts  --      0.2467                 0.3163                 0.3956
 IR Inten    --      6.3677                 2.0010                 2.5680

                     13                     14                     15
                      A                      A                      A
 Frequencies --    547.9380               648.0335               687.3828
 Red. masses --      4.9533                 1.7919                 3.4276
 Frc consts  --      0.8762                 0.4434                 0.9542
 IR Inten    --      0.7805                 7.6355                 3.7622

                     16                     17                     18
                      A                      A                      A
 Frequencies --    717.8849               760.8323               870.7658
 Red. masses --      7.1437                11.8481                 5.2462
 Frc consts  --      2.1691                 4.0409                 2.3437
 IR Inten    --      3.3908                22.3889                 0.7882

                     19                     20                     21
                      A                      A                      A
 Frequencies --    934.2212               945.9211               958.4384
 Red. masses --      1.6269                 1.5696                 2.3334
 Frc consts  --      0.8366                 0.8275                 1.2629
 IR Inten    --      4.1655                 4.9279                 6.2456

                     22                     23                     24
                      A                      A                      A
 Frequencies --    961.8442               987.8882              1013.5849
 Red. masses --      1.4493                 2.3221                 2.0818
 Frc consts  --      0.7900                 1.3352                 1.2601
 IR Inten    --     68.3785                 6.7049                 8.0475

                     25                     26                     27
                      A                      A                      A
 Frequencies --   1025.2075              1083.5483              1092.7232
 Red. masses --      1.5057                 4.1854                 3.7791
 Frc consts  --      0.9324                 2.8953                 2.6586
 IR Inten    --     54.7385               116.5639                74.6384

                     28                     29                     30
                      A                      A                      A
 Frequencies --   1115.3916              1142.9073              1155.1932
 Red. masses --      4.4727                 2.4639                 4.8703
 Frc consts  --      3.2785                 1.8963                 3.8293
 IR Inten    --    181.7570                56.3739               416.9277

                     31                     32                     33
                      A                      A                      A
 Frequencies --   1161.8522              1182.9098              1233.4408
 Red. masses --      3.5256                 1.9635                 1.1596
 Frc consts  --      2.8041                 1.6188                 1.0394
 IR Inten    --      7.9773                 4.5729                 2.6740

                     34                     35                     36
                      A                      A                      A
 Frequencies --   1263.0185              1277.6993              1314.5360
 Red. masses --      1.1117                 1.1426                 1.2598
 Frc consts  --      1.0448                 1.0990                 1.2826
 IR Inten    --      2.6011                10.5960                 1.9367

                     37                     38                     39
                      A                      A                      A
 Frequencies --   1327.2197              1377.9205              1383.7282
 Red. masses --      1.3321                 1.2468                 1.3153
 Frc consts  --      1.3825                 1.3948                 1.4838
 IR Inten    --     44.7020                12.8522                18.4540

                     40                     41                     42
                      A                      A                      A
 Frequencies --   1412.9114              1447.7135              1471.0385
 Red. masses --      1.4710                 1.4340                 1.3161
 Frc consts  --      1.7302                 1.7708                 1.6779
 IR Inten    --     28.3513                12.9335                11.6936

                     43                     44                     45
                      A                      A                      A
 Frequencies --   1497.5406              1514.7473              1525.7492
 Red. masses --      1.1127                 1.0912                 1.0895
 Frc consts  --      1.4703                 1.4752                 1.4943
 IR Inten    --      5.1824                 2.0436                 5.5869

                     46                     47                     48
                      A                      A                      A
 Frequencies --   1718.7258              1896.6521              2952.1198
 Red. masses --      4.6156                12.9344                 1.0623
 Frc consts  --      8.0333                27.4139                 5.4547
 IR Inten    --      2.0552               730.1632                27.9786

                     49                     50                     51
                      A                      A                      A
 Frequencies --   2960.4885              3009.3280              3018.3649
 Red. masses --      1.0653                 1.0955                 1.0967
 Frc consts  --      5.5010                 5.8454                 5.8867
 IR Inten    --     80.4655                36.7873                29.4640

                     52                     53                     54
                      A                      A                      A
 Frequencies --   3051.8714              3079.5329              3139.9528
 Red. masses --      1.0679                 1.0859                 1.1012
 Frc consts  --      5.8600                 6.0677                 6.3967
 IR Inten    --     31.0340                19.0679                15.3406

                     55                     56                     57
                      A                      A                      A
 Frequencies --   3150.7935              3168.2797              3239.0868
 Red. masses --      1.0591                 1.0924                 1.1156
 Frc consts  --      6.1947                 6.4608                 6.8962
 IR Inten    --      9.1755                 6.2471                13.0292

 - Thermochemistry -
 -------------------
 Temperature   298.150 Kelvin.  Pressure   1.00000 Atm.
 Atom     1 has atomic number  6 and mass  12.00000

 Molecular mass:   158.05791 amu.
 Principal axes and moments of inertia in atomic units:
                           1         2         3
     Eigenvalues --   595.616264259.486074704.55193
           X            0.74447  -0.50961   0.43134
           Y           -0.30756   0.31166   0.89904
           Z            0.59259   0.80198  -0.07529
 This molecule is an asymmetric top.
 Rotational symmetry number  1.
 Warning -- assumption of classical behavior for rotation
           may cause significant error
 Rotational temperatures (Kelvin)      0.14542     0.02033     0.01841
 Rotational constants (GHZ):           3.03004     0.42370     0.38362
 Zero-point vibrational energy     442773.4 (Joules/Mol)
                                  105.82539 (Kcal/Mol)
 Warning -- explicit consideration of  13 degrees of freedom as
           vibrations may cause significant error
 Vibrational temperatures:     51.53    73.05    98.87   148.07   172.62
          (Kelvin)            221.84   266.30   368.63   414.12   559.89
                              663.90   700.58   788.36   932.38   988.99
                             1032.88  1094.67  1252.84  1344.14  1360.97
                             1378.98  1383.88  1421.35  1458.32  1475.04
                             1558.98  1572.18  1604.80  1644.39  1662.07
                             1671.65  1701.94  1774.65  1817.20  1838.32
                             1891.32  1909.57  1982.52  1990.88  2032.86
                             2082.94  2116.50  2154.63  2179.38  2195.21
                             2472.86  2728.86  4247.44  4259.48  4329.75
                             4342.75  4390.96  4430.76  4517.69  4533.29
                             4558.45  4660.32

 Zero-point correction=                           0.168643 (Hartree/Particle)
 Thermal correction to Energy=                    0.179592
 Thermal correction to Enthalpy=                  0.180536
 Thermal correction to Gibbs Free Energy=         0.129823
 Sum of electronic and zero-point Energies=           -573.484043
 Sum of electronic and thermal Energies=              -573.473095
 Sum of electronic and thermal Enthalpies=            -573.472151
 Sum of electronic and thermal Free Energies=         -573.522864

                     E (Thermal)             CV                S
                      KCal/Mol        Cal/Mol-Kelvin    Cal/Mol-Kelvin
 Total                  112.695             38.245            106.735
 Electronic               0.000              0.000              0.000
 Translational            0.889              2.981             41.083
 Rotational               0.889              2.981             30.857
 Vibrational            110.918             32.283             34.795
 Vibration     1          0.594              1.982              5.478
 Vibration     2          0.595              1.977              4.787
 Vibration     3          0.598              1.969              4.190
 Vibration     4          0.605              1.947              3.398
 Vibration     5          0.609              1.933              3.101
 Vibration     6          0.620              1.898              2.620
 Vibration     7          0.631              1.860              2.276
 Vibration     8          0.666              1.752              1.687
 Vibration     9          0.685              1.696              1.487
 Vibration    10          0.757              1.493              1.003
 Vibration    11          0.819              1.336              0.762
 Vibration    12          0.843              1.279              0.692
 Vibration    13          0.903              1.144              0.548

 Optimization completed.
    -- Stationary point found.
 Normal termination of Gaussian 16 at Thu May 11 06:07:33 2023.
