 Gaussian 16, Revision B.01,
 Gaussian 16:  ES64L-G16RevB.01 20-Dec-2017

 ----------------------------------------------------------------------
 # opt=(calcall,tight,cartesian) freq b3lyp/gen nosymm scf=(qc,maxcycle
 =1024) pseudo=read
 ----------------------------------------------------------------------

 ------------
 AGE_opt_freq
 ------------
 Symbolic Z-matrix:
 Charge =  0 Multiplicity = 1

 SCF Done:  E(RB3LYP) =  -385.038732084     a.u. after    7 cycles
 SCF Done:  E(RB3LYP) =  -385.039386871     a.u. after    7 cycles
 SCF Done:  E(RB3LYP) =  -385.039883050     a.u. after    6 cycles
 SCF Done:  E(RB3LYP) =  -385.039925781     a.u. after    5 cycles
 SCF Done:  E(RB3LYP) =  -385.039926028     a.u. after    3 cycles
 SCF Done:  E(RB3LYP) =  -385.039926028     a.u. after    2 cycles
 Optimization completed.
    -- Stationary point found.
 Normal termination of Gaussian 16 at Tue May  9 19:39:38 2023.

 ------------------------------------------------------------------
 #N Geom=AllCheck Guess=TCheck SCRF=Check GenChk RB3LYP/ChkBas Freq
 ------------------------------------------------------------------

 Structure from the checkpoint file:  "AGE_opt_freq.chk"
 ------------
 AGE_opt_freq
 ------------
 Charge =  0 Multiplicity = 1

                          Input orientation:
 ---------------------------------------------------------------------
 Center     Atomic      Atomic             Coordinates (Angstroms)
 Number     Number       Type             X           Y           Z
 ---------------------------------------------------------------------
      1          6           0      -10.684971   -2.990632   -1.183768
      2          6           0       -9.423119   -2.644288   -1.449724
      3          6           0       -8.335024   -2.567784   -0.420734
      4          8           0       -7.700673   -1.294421   -0.512462
      5          6           0       -6.603881   -1.152560    0.375916
      6          6           0       -6.075291    0.255576    0.244622
      7          6           0       -4.930227    0.572377   -0.618816
      8          8           0       -4.774339    0.474941    0.809013
      9          1           0      -11.432080   -3.063724   -1.968642
     10          1           0      -11.014182   -3.216592   -0.171727
     11          1           0       -9.119658   -2.411508   -2.469635
     12          1           0       -7.586687   -3.359401   -0.603228
     13          1           0       -8.743845   -2.722147    0.590581
     14          1           0       -5.804723   -1.873891    0.141517
     15          1           0       -6.924536   -1.331198    1.415861
     16          1           0       -6.799936    1.042883    0.455998
     17          1           0       -4.821200    1.576473   -1.025886
     18          1           0       -4.454150   -0.224194   -1.189796
 ---------------------------------------------------------------------

 SCF Done:  E(RB3LYP) =  -385.039926028     a.u. after    1 cycles

 Alpha  occ. eigenvalues --  -19.16989 -19.16472 -10.24834 -10.24572 -10.24428
 Alpha  occ. eigenvalues --  -10.24280 -10.20114 -10.19352  -1.08232  -1.04859
 Alpha  occ. eigenvalues --   -0.80325  -0.74640  -0.67746  -0.66566  -0.60565
 Alpha  occ. eigenvalues --   -0.57256  -0.52412  -0.50269  -0.49898  -0.48113
 Alpha  occ. eigenvalues --   -0.45960  -0.43309  -0.40942  -0.39685  -0.38917
 Alpha  occ. eigenvalues --   -0.36289  -0.33796  -0.31749  -0.28456  -0.28005
 Alpha  occ. eigenvalues --   -0.26976
 Alpha virt. eigenvalues --   -0.01420   0.00800   0.01672   0.01994   0.02371
 Alpha virt. eigenvalues --    0.03029   0.03607   0.04742   0.05349   0.06054
 Alpha virt. eigenvalues --    0.06660   0.07497   0.08322   0.08870   0.09490

 Mulliken charges:
               1
     1  C   -0.301894
     2  C    0.036678
     3  C   -0.214983
     4  O   -0.329665
     5  C   -0.084280
     6  C   -0.109609
     7  C    0.020073
     8  O   -0.353661
     9  H    0.138929
    10  H    0.132698
    11  H    0.140137
    12  H    0.128726
    13  H    0.119344
    14  H    0.122012
    15  H    0.129243
    16  H    0.148552
    17  H    0.140927
    18  H    0.136772
 Sum of Mulliken charges =   0.00000

 Dipole moment (field-independent basis, Debye):
    X=             -0.8848    Y=             -1.1731    Z=             -0.9064  Tot=              1.7264
 Quadrupole moment (field-independent basis, Debye-Ang):
   XX=            -38.7580   YY=            -45.7275   ZZ=            -49.2127
   XY=              9.4376   XZ=              0.9393   YZ=             -1.6156

  Exact polarizability:  97.629  15.815  72.271   1.332  -0.447  70.147
 Approx polarizability: 126.592  11.083  91.507  -4.012  -3.529  99.473

                      1                      2                      3
                      A                      A                      A
 Frequencies --     47.2658                56.3834                98.2595
 Red. masses --      3.9836                 2.7180                 2.7304
 Frc consts  --      0.0052                 0.0051                 0.0155
 IR Inten    --      1.5066                 1.2166                 0.6614

                      4                      5                      6
                      A                      A                      A
 Frequencies --    131.2088               139.4715               283.3424
 Red. masses --      3.4508                 3.2321                 2.8014
 Frc consts  --      0.0350                 0.0370                 0.1325
 IR Inten    --      7.3876                 3.2873                12.3669

                      7                      8                      9
                      A                      A                      A
 Frequencies --    317.5412               402.5126               456.4616
 Red. masses --      4.0426                 2.2653                 2.5071
 Frc consts  --      0.2402                 0.2162                 0.3078
 IR Inten    --      2.2711                 0.4432                 2.1295

                     10                     11                     12
                      A                      A                      A
 Frequencies --    490.6307               653.6558               830.0724
 Red. masses --      2.6990                 1.7254                 3.8688
 Frc consts  --      0.3828                 0.4343                 1.5706
 IR Inten    --      0.7509                 5.2775                23.9052

                     13                     14                     15
                      A                      A                      A
 Frequencies --    871.1262               914.1282               938.0196
 Red. masses --      4.1154                 1.2405                 1.4448
 Frc consts  --      1.8400                 0.6107                 0.7490
 IR Inten    --     31.1393                 6.0278                 5.6195

                     16                     17                     18
                      A                      A                      A
 Frequencies --    956.6282               984.2653              1009.2095
 Red. masses --      1.3340                 1.9732                 2.3048
 Frc consts  --      0.7192                 1.1263                 1.3831
 IR Inten    --     51.8756                 2.7695                29.0223

                     19                     20                     21
                      A                      A                      A
 Frequencies --   1021.9184              1035.9250              1104.3636
 Red. masses --      1.2160                 2.3217                 1.4950
 Frc consts  --      0.7482                 1.4680                 1.0743
 IR Inten    --      8.3895                41.7704                 2.8080

                     22                     23                     24
                      A                      A                      A
 Frequencies --   1138.5474              1150.2137              1156.7273
 Red. masses --      6.9379                 1.4032                 1.5237
 Frc consts  --      5.2988                 1.0938                 1.2012
 IR Inten    --    246.2727                 2.2488                 3.2981

                     25                     26                     27
                      A                      A                      A
 Frequencies --   1180.1898              1181.7834              1245.2254
 Red. masses --      1.9300                 1.6374                 1.1707
 Frc consts  --      1.5839                 1.3474                 1.0695
 IR Inten    --      9.7952                 7.5005                 6.1538

                     28                     29                     30
                      A                      A                      A
 Frequencies --   1263.7237              1283.5911              1313.4704
 Red. masses --      1.1437                 1.4445                 1.2618
 Frc consts  --      1.0761                 1.4022                 1.2826
 IR Inten    --      5.4225                 4.6920                 0.6013

                     31                     32                     33
                      A                      A                      A
 Frequencies --   1365.0746              1409.2544              1457.7527
 Red. masses --      1.2536                 1.4066                 1.3841
 Frc consts  --      1.3763                 1.6459                 1.7330
 IR Inten    --     72.0042                 3.0413                 5.4000

                     34                     35                     36
                      A                      A                      A
 Frequencies --   1474.6878              1505.5852              1520.1919
 Red. masses --      1.4446                 1.1053                 1.1227
 Frc consts  --      1.8510                 1.4761                 1.5287
 IR Inten    --      8.5459                 4.7079                 3.1783

                     37                     38                     39
                      A                      A                      A
 Frequencies --   1536.2398              1717.5618              2958.4677
 Red. masses --      1.3706                 4.6231                 1.0615
 Frc consts  --      1.9059                 8.0354                 5.4738
 IR Inten    --      3.9951                 2.7539                36.9323

                     40                     41                     42
                      A                      A                      A
 Frequencies --   2978.4254              3006.9879              3015.5701
 Red. masses --      1.0566                 1.0977                 1.1057
 Frc consts  --      5.5225                 5.8478                 5.9240
 IR Inten    --     62.3784                63.3745                24.9853

                     43                     44                     45
                      A                      A                      A
 Frequencies --   3103.8286              3134.4745              3148.7171
 Red. masses --      1.0503                 1.0897                 1.0589
 Frc consts  --      5.9616                 6.3080                 6.1857
 IR Inten    --     23.5196                19.5930                10.4736

                     46                     47                     48
                      A                      A                      A
 Frequencies --   3166.8191              3194.2320              3236.4083
 Red. masses --      1.0923                 1.1207                 1.1155
 Frc consts  --      6.4540                 6.7373                 6.8840
 IR Inten    --      6.1633                23.7315                14.6701

 - Thermochemistry -
 -------------------
 Temperature   298.150 Kelvin.  Pressure   1.00000 Atm.
 Atom     1 has atomic number  6 and mass  12.00000

 Molecular mass:   114.06808 amu.
 Principal axes and moments of inertia in atomic units:
                           1         2         3
     Eigenvalues --   199.495602535.349272604.20773
           X            0.80419   0.01836  -0.59409
           Y            0.54869  -0.40723   0.73014
           Z            0.22853   0.91314   0.33756
 This molecule is an asymmetric top.
 Rotational symmetry number  1.
 Rotational temperatures (Kelvin)      0.43416     0.03416     0.03326
 Rotational constants (GHZ):           9.04652     0.71183     0.69301
 Zero-point vibrational energy     398273.6 (Joules/Mol)
                                   95.18967 (Kcal/Mol)
 Warning -- explicit consideration of  10 degrees of freedom as
           vibrations may cause significant error
 Vibrational temperatures:     68.00    81.12   141.37   188.78   200.67
          (Kelvin)            407.67   456.87   579.13   656.75   705.91
                              940.46  1194.29  1253.36  1315.23  1349.60
                             1376.37  1416.14  1452.03  1470.31  1490.47
                             1588.93  1638.12  1654.90  1664.27  1698.03
                             1700.32  1791.60  1818.22  1846.80  1889.79
                             1964.04  2027.60  2097.38  2121.75  2166.20
                             2187.22  2210.31  2471.19  4256.58  4285.29
                             4326.38  4338.73  4465.72  4509.81  4530.30
                             4556.35  4595.79  4656.47

 Zero-point correction=                           0.151694 (Hartree/Particle)
 Thermal correction to Energy=                    0.160662
 Thermal correction to Enthalpy=                  0.161606
 Thermal correction to Gibbs Free Energy=         0.116603
 Sum of electronic and zero-point Energies=           -384.888232
 Sum of electronic and thermal Energies=              -384.879264
 Sum of electronic and thermal Enthalpies=            -384.878320
 Sum of electronic and thermal Free Energies=         -384.923323

                     E (Thermal)             CV                S
                      KCal/Mol        Cal/Mol-Kelvin    Cal/Mol-Kelvin
 Total                  100.817             30.717             94.716
 Electronic               0.000              0.000              0.000
 Translational            0.889              2.981             40.110
 Rotational               0.889              2.981             28.667
 Vibrational             99.039             24.756             25.939
 Vibration     1          0.595              1.979              4.929
 Vibration     2          0.596              1.975              4.580
 Vibration     3          0.604              1.950              3.489
 Vibration     4          0.612              1.922              2.928
 Vibration     5          0.615              1.914              2.811
 Vibration     6          0.682              1.705              1.513
 Vibration     7          0.704              1.640              1.323
 Vibration     8          0.768              1.465              0.953
 Vibration     9          0.815              1.347              0.776
 Vibration    10          0.846              1.271              0.682

 Optimization completed.
    -- Stationary point found.
 Normal termination of Gaussian 16 at Tue May  9 19:40:12 2023.
