 Gaussian 16, Revision B.01,
 Gaussian 16:  ES64L-G16RevB.01 20-Dec-2017

 -----------------------------------------------------
 # b3lyp/gen nosymm scf=(qc,maxcycle=1024) pseudo=read
 -----------------------------------------------------

 -------------------
 TEAB_far_energy_sin
 -------------------
 Symbolic Z-matrix:
 Charge =  0 Multiplicity = 1

                          Input orientation:
 ---------------------------------------------------------------------
 Center     Atomic      Atomic             Coordinates (Angstroms)
 Number     Number       Type             X           Y           Z
 ---------------------------------------------------------------------
      1          7           0       -2.020667   -6.943636   -1.575534
      2          6           0       -2.952163   -6.148736   -0.635437
      3          6           0       -4.367617   -5.860453   -1.124962
      4          1           0       -2.423301   -5.206957   -0.429194
      5          1           0       -3.005562   -6.744822    0.279599
      6          1           0       -4.823414   -5.217678   -0.365060
      7          1           0       -4.396808   -5.304792   -2.062141
      8          1           0       -4.992911   -6.753685   -1.216113
      9          6           0       -2.799874   -8.065695   -2.238469
     10          6           0       -1.998921   -9.007748   -3.133748
     11          1           0       -3.592730   -7.594244   -2.816895
     12          1           0       -3.273323   -8.622110   -1.424083
     13          1           0       -2.697285   -9.740289   -3.550659
     14          1           0       -1.532230   -8.489218   -3.974853
     15          1           0       -1.229799   -9.564264   -2.593061
     16          6           0       -0.914469   -7.566140   -0.710079
     17          6           0       -0.238220   -6.634925    0.293804
     18          1           0       -0.179364   -7.963185   -1.411501
     19          1           0       -1.382774   -8.412032   -0.196829
     20          1           0        0.666973   -7.140324    0.646516
     21          1           0        0.040946   -5.664134   -0.126417
     22          1           0       -0.868570   -6.435964    1.162810
     23          6           0       -1.331414   -6.034229   -2.607723
     24          6           0       -2.215969   -5.384255   -3.662345
     25          1           0       -0.567901   -6.660547   -3.073430
     26          1           0       -0.858095   -5.231533   -2.028289
     27          1           0       -1.539866   -4.904950   -4.377417
     28          1           0       -2.845230   -6.083272   -4.222824
     29          1           0       -2.823222   -4.584901   -3.235546
     30         35           0        0.800291    4.430557    1.007088
 ---------------------------------------------------------------------

 SCF Done:  E(RB3LYP) =  -2942.98581084     a.u. after   12 cycles

 Alpha  occ. eigenvalues -- -482.43236 -61.51746 -56.08444 -56.08438 -56.08438
 Alpha  occ. eigenvalues --  -14.56470 -10.35049 -10.35014 -10.34983 -10.34871
 Alpha  occ. eigenvalues --  -10.29371 -10.28727 -10.28678 -10.28675  -8.28772
 Alpha  occ. eigenvalues --   -6.29580  -6.29560  -6.29560  -2.41682  -2.41677
 Alpha  occ. eigenvalues --   -2.41677  -2.41661  -2.41661  -1.11471  -0.89872
 Alpha  occ. eigenvalues --   -0.89465  -0.89382  -0.84317  -0.77213  -0.76181
 Alpha  occ. eigenvalues --   -0.75236  -0.68686  -0.62987  -0.62801  -0.60990
 Alpha  occ. eigenvalues --   -0.58621  -0.56995  -0.54742  -0.54611  -0.51507
 Alpha  occ. eigenvalues --   -0.50677  -0.50447  -0.49854  -0.49731  -0.49648
 Alpha  occ. eigenvalues --   -0.49346  -0.48740  -0.47771  -0.46870  -0.46557
 Alpha  occ. eigenvalues --   -0.45751  -0.45264  -0.07840  -0.07807  -0.07807
 Alpha virt. eigenvalues --   -0.08938  -0.07416  -0.07261  -0.06708  -0.04911
 Alpha virt. eigenvalues --   -0.04679  -0.03894  -0.03454  -0.03260  -0.03076
 Alpha virt. eigenvalues --   -0.01607  -0.01082  -0.00617  -0.00056   0.00383

 Mulliken charges:
               1
     1  N   -0.711791
     2  C    0.085797
     3  C   -0.608820
     4  H    0.203263
     5  H    0.188556
     6  H    0.193412
     7  H    0.172323
     8  H    0.172494
     9  C    0.040639
    10  C   -0.565429
    11  H    0.192480
    12  H    0.190353
    13  H    0.186457
    14  H    0.174871
    15  H    0.174623
    16  C    0.111128
    17  C   -0.533085
    18  H    0.183587
    19  H    0.190923
    20  H    0.187261
    21  H    0.180739
    22  H    0.178735
    23  C    0.036737
    24  C   -0.542391
    25  H    0.181359
    26  H    0.194400
    27  H    0.192003
    28  H    0.166115
    29  H    0.175641
    30  Br  -0.992383
 Sum of Mulliken charges =   0.00000

 Dipole moment (field-independent basis, Debye):
    X=            -13.4729    Y=            -53.3778    Z=            -12.4827  Tot=             56.4493
 Quadrupole moment (field-independent basis, Debye-Ang):
   XX=            -57.2854   YY=             53.9875   ZZ=            -65.3893
   XY=             48.4325   XZ=             12.7329   YZ=             31.8715

 Normal termination of Gaussian 16 at Fri Jun  2 16:51:23 2023.
