 Gaussian 16, Revision A.03,
 Gaussian 16:  ES64L-G16RevA.03 25-Dec-2016

 ----------------------------------------------------------------------
 # opt=(calcall,tight,cartesian) freq b3lyp/gen nosymm scf=(qc,maxcycle
 =1024) pseudo=read
 ----------------------------------------------------------------------

 -------------------
 2_opt_freq_from_IRC
 -------------------
 Symbolic Z-matrix:
 Charge =  0 Multiplicity = 1

 SCF Done:  E(RB3LYP) =  -4464.47222606     a.u. after    9 cycles
 SCF Done:  E(RB3LYP) =  -4464.47240834     a.u. after    7 cycles
 SCF Done:  E(RB3LYP) =  -4464.47258862     a.u. after   11 cycles
 SCF Done:  E(RB3LYP) =  -4464.47263961     a.u. after    9 cycles
 SCF Done:  E(RB3LYP) =  -4464.47267402     a.u. after   11 cycles
 SCF Done:  E(RB3LYP) =  -4464.47270304     a.u. after    5 cycles
 SCF Done:  E(RB3LYP) =  -4464.47272530     a.u. after   11 cycles
 SCF Done:  E(RB3LYP) =  -4464.47274544     a.u. after    9 cycles
 SCF Done:  E(RB3LYP) =  -4464.47276305     a.u. after    9 cycles
 SCF Done:  E(RB3LYP) =  -4464.47278152     a.u. after    9 cycles
 SCF Done:  E(RB3LYP) =  -4464.47500427     a.u. after   10 cycles
 SCF Done:  E(RB3LYP) =  -4464.47503731     a.u. after   11 cycles
 SCF Done:  E(RB3LYP) =  -4464.47505482     a.u. after    8 cycles
 SCF Done:  E(RB3LYP) =  -4464.47506363     a.u. after   10 cycles
 SCF Done:  E(RB3LYP) =  -4464.47506561     a.u. after    3 cycles
 SCF Done:  E(RB3LYP) =  -4464.47506571     a.u. after    2 cycles
 SCF Done:  E(RB3LYP) =  -4464.47506572     a.u. after    2 cycles
 SCF Done:  E(RB3LYP) =  -4464.47506573     a.u. after    2 cycles
 SCF Done:  E(RB3LYP) =  -4464.47506574     a.u. after    2 cycles
 Optimization completed on the basis of negligible forces.
    -- Stationary point found.
 Normal termination of Gaussian 16 at Mon Jun 26 11:29:14 2023.

 ------------------------------------------------------------------
 #N Geom=AllCheck Guess=TCheck SCRF=Check GenChk RB3LYP/ChkBas Freq
 ------------------------------------------------------------------

 Structure from the checkpoint file:  "2_opt_freq_from_IRC.chk"
 -------------------
 2_opt_freq_from_IRC
 -------------------
 Charge =  0 Multiplicity = 1

                          Input orientation:
 ---------------------------------------------------------------------
 Center     Atomic      Atomic             Coordinates (Angstroms)
 Number     Number       Type             X           Y           Z
 ---------------------------------------------------------------------
      1         30           0       -4.694489   -2.528905    2.326317
      2          8           0       -4.600022   -0.931734    3.631360
      3          8           0       -2.342520   -0.874744    3.541103
      4          8           0       -3.771400   -1.279734    0.828231
      5          8           0       -1.523685   -1.120536    0.679270
      6          6           0       -3.461226   -0.468815    3.942742
      7          6           0       -2.703539   -0.842639    0.321243
      8         30           0       -1.422580   -2.383004    2.255318
      9          8           0       -2.282316   -3.986596    0.978728
     10          8           0       -4.539354   -4.115561    1.014246
     11          8           0       -1.332329   -3.670221    3.802497
     12          8           0       -3.593209   -3.694425    3.770586
     13          6           0       -3.384903   -4.484776    0.641370
     14          6           0       -2.467582   -4.041605    4.218740
     15          1           0       -3.455408    0.383834    4.642316
     16          1           0       -2.790739   -0.146153   -0.527563
     17          1           0       -3.347035   -5.335536   -0.059501
     18          1           0       -2.451967   -4.740511    5.069891
     19          6           0       -7.533844   -1.751514    3.144391
     20          6           0       -8.925190   -1.779770    3.209727
     21          6           0       -9.615492   -2.737870    2.465207
     22          6           0       -8.889458   -3.635442    1.680343
     23          6           0       -7.499316   -3.544901    1.666524
     24          7           0       -6.834486   -2.619084    2.386057
     25          1           0      -10.700185   -2.784227    2.496111
     26          1           0       -6.942948   -1.030371    3.700081
     27          1           0       -9.449248   -1.063042    3.832903
     28          1           0       -9.385065   -4.395750    1.086214
     29          1           0       -6.881618   -4.214494    1.076539
     30          6           0        2.606311    3.458239    3.433490
     31          6           0        3.043065    2.370368    2.791399
     32          6           0        2.326202    1.698713    1.660825
     33          8           0        2.182833    0.308203    1.979166
     34          6           0        1.756059   -0.458987    0.858437
     35          6           0        1.854209   -1.911577    1.221735
     36          6           0        1.136236   -2.949759    0.475283
     37          8           0        0.700671   -2.608337    1.818480
     38          1           0        3.189933    3.930911    4.219364
     39          1           0        1.650419    3.917008    3.188334
     40          1           0        3.999979    1.924553    3.062249
     41          1           0        2.903554    1.802483    0.726759
     42          1           0        1.334882    2.154549    1.505357
     43          1           0        2.416599   -0.271068   -0.005672
     44          1           0        0.725453   -0.209789    0.571834
     45          1           0        2.773277   -2.193570    1.732374
     46          1           0        1.551721   -3.951140    0.390388
     47          1           0        0.440059   -2.649459   -0.304240
     48          7           0        9.323654    7.878593   -9.418327
     49          6           0        8.775192    8.666291  -10.627481
     50          6           0        7.270430    8.622886  -10.872553
     51          1           0        9.313044    8.270702  -11.501210
     52          1           0        9.078220    9.701899  -10.450984
     53          1           0        7.103577    9.157016  -11.813418
     54          1           0        6.883739    7.613699  -11.013723
     55          1           0        6.683343    9.128889  -10.100249
     56          6           0        8.391804    8.049291   -8.231660
     57          6           0        8.839774    7.404936   -6.922216
     58          1           0        7.428152    7.640829   -8.531655
     59          1           0        8.266006    9.128533   -8.103645
     60          1           0        8.060745    7.595195   -6.177194
     61          1           0        8.950718    6.321056   -7.006041
     62          1           0        9.770233    7.824714   -6.532814
     63          6           0       10.688373    8.483285   -9.054888
     64          6           0       11.654868    8.714255  -10.214541
     65          1           0       11.128756    7.801136   -8.326361
     66          1           0       10.466507    9.425674   -8.544057
     67          1           0       12.641714    8.907473   -9.780939
     68          1           0       11.730791    7.864246  -10.899138
     69          1           0       11.379340    9.583125  -10.815579
     70          6           0        9.559677    6.396005   -9.755568
     71          6           0        8.331274    5.543955  -10.042216
     72          1           0       10.119726    5.997221   -8.907378
     73          1           0       10.186439    6.391655  -10.656259
     74          1           0        8.684305    4.510323  -10.113993
     75          1           0        7.563082    5.575454   -9.262716
     76          1           0        7.896991    5.784870  -11.013421
     77         35           0        4.059541    1.363009   -1.887572
 ---------------------------------------------------------------------

 SCF Done:  E(RB3LYP) =  -4464.47506573     a.u. after    2 cycles

 Alpha  occ. eigenvalues -- -482.45774 -61.54235 -56.10964 -56.10945 -56.10932
 Alpha  occ. eigenvalues --  -19.14042 -19.09906 -19.09757 -19.09688 -19.09540
 Alpha  occ. eigenvalues --  -19.09408 -19.09343 -19.09184 -19.09041 -19.08266
 Alpha  occ. eigenvalues --  -14.56434 -14.36674 -10.35351 -10.35113 -10.34901
 Alpha  occ. eigenvalues --  -10.34427 -10.29365 -10.28909 -10.28564 -10.28140
 Alpha  occ. eigenvalues --  -10.26162 -10.26088 -10.26004 -10.26003 -10.23362
 Alpha  occ. eigenvalues --  -10.23348 -10.22047 -10.20795 -10.20784 -10.20292
 Alpha  occ. eigenvalues --  -10.20043 -10.16164 -10.15520 -10.13147 -10.12542
 Alpha  occ. eigenvalues --   -8.31215  -6.32026  -6.32005  -6.31994  -2.44128
 Alpha  occ. eigenvalues --   -2.44125  -2.44116  -2.44099  -2.44098  -1.11429
 Alpha  occ. eigenvalues --   -1.03651  -1.02728  -1.02256  -1.02116  -1.01840
 Alpha  occ. eigenvalues --   -0.96368  -0.96223  -0.93986  -0.93700  -0.93628
 Alpha  occ. eigenvalues --   -0.93521  -0.89751  -0.89603  -0.89196  -0.84239
 Alpha  occ. eigenvalues --   -0.81822  -0.77567  -0.76788  -0.76336  -0.75293
 Alpha  occ. eigenvalues --   -0.72959  -0.68900  -0.68531  -0.64570  -0.64105
 Alpha  occ. eigenvalues --   -0.63547  -0.62902  -0.62819  -0.60980  -0.59285
 Alpha  occ. eigenvalues --   -0.58956  -0.58385  -0.58210  -0.57388  -0.57214
 Alpha  occ. eigenvalues --   -0.57128  -0.56773  -0.56479  -0.56250  -0.56194
 Alpha  occ. eigenvalues --   -0.55999  -0.55761  -0.55656  -0.54795  -0.54561
 Alpha  occ. eigenvalues --   -0.54233  -0.53948  -0.53841  -0.53596  -0.52421
 Alpha  occ. eigenvalues --   -0.51509  -0.51366  -0.50798  -0.50073  -0.50000
 Alpha  occ. eigenvalues --   -0.49887  -0.49668  -0.49381  -0.49141  -0.48556
 Alpha  occ. eigenvalues --   -0.47880  -0.47353  -0.47115  -0.46826  -0.46594
 Alpha  occ. eigenvalues --   -0.45755  -0.45659  -0.45197  -0.44792  -0.44644
 Alpha  occ. eigenvalues --   -0.43746  -0.43653  -0.43173  -0.42853  -0.42415
 Alpha  occ. eigenvalues --   -0.42032  -0.41954  -0.41257  -0.41217  -0.40387
 Alpha  occ. eigenvalues --   -0.39535  -0.39193  -0.39173  -0.37767  -0.37687
 Alpha  occ. eigenvalues --   -0.37387  -0.37127  -0.35925  -0.35691  -0.33158
 Alpha  occ. eigenvalues --   -0.31967  -0.30749  -0.30564  -0.30183  -0.29164
 Alpha  occ. eigenvalues --   -0.28508  -0.27521  -0.26496  -0.26158  -0.26028
 Alpha  occ. eigenvalues --   -0.25858  -0.25051  -0.24831  -0.24751  -0.24651
 Alpha  occ. eigenvalues --   -0.24077  -0.23940  -0.23750  -0.23623  -0.21943
 Alpha  occ. eigenvalues --   -0.21032  -0.18907  -0.10414  -0.10305  -0.10242
 Alpha virt. eigenvalues --   -0.09019  -0.07300  -0.07123  -0.06725  -0.05001
 Alpha virt. eigenvalues --   -0.04995  -0.04832  -0.03862  -0.03443  -0.03170
 Alpha virt. eigenvalues --   -0.02773  -0.02692  -0.01206  -0.01044  -0.00350

 Mulliken charges:
               1
     1  Zn   0.693306
     2  O   -0.507351
     3  O   -0.448918
     4  O   -0.438973
     5  O   -0.502994
     6  C    0.467862
     7  C    0.469693
     8  Zn   0.557895
     9  O   -0.474744
    10  O   -0.506025
    11  O   -0.419685
    12  O   -0.449152
    13  C    0.472888
    14  C    0.434173
    15  H    0.087487
    16  H    0.094033
    17  H    0.082720
    18  H    0.088097
    19  C   -0.305824
    20  C    0.067971
    21  C   -0.560871
    22  C    0.072155
    23  C   -0.300456
    24  N    0.209239
    25  H    0.141368
    26  H    0.198323
    27  H    0.141878
    28  H    0.141403
    29  H    0.197433
    30  C   -0.325356
    31  C    0.150413
    32  C   -0.262723
    33  O   -0.331975
    34  C   -0.249138
    35  C    0.138303
    36  C   -0.101723
    37  O   -0.265576
    38  H    0.116734
    39  H    0.121960
    40  H    0.127993
    41  H    0.199868
    42  H    0.103460
    43  H    0.199018
    44  H    0.150967
    45  H    0.153405
    46  H    0.142683
    47  H    0.174896
    48  N   -0.710918
    49  C    0.077097
    50  C   -0.611611
    51  H    0.190405
    52  H    0.187066
    53  H    0.183993
    54  H    0.174681
    55  H    0.180562
    56  C    0.048632
    57  C   -0.555130
    58  H    0.196523
    59  H    0.190238
    60  H    0.200674
    61  H    0.181788
    62  H    0.171783
    63  C    0.118400
    64  C   -0.536430
    65  H    0.188862
    66  H    0.193780
    67  H    0.187314
    68  H    0.170820
    69  H    0.174005
    70  C    0.030022
    71  C   -0.539819
    72  H    0.188389
    73  H    0.180574
    74  H    0.191209
    75  H    0.181814
    76  H    0.165036
    77  Br  -0.945897
 Sum of Mulliken charges =  -0.00000

 Dipole moment (field-independent basis, Debye):
    X=             23.9649    Y=             32.2376    Z=            -41.2979  Tot=             57.6116
 Quadrupole moment (field-independent basis, Debye-Ang):
   XX=            158.6517   YY=             29.2404   ZZ=            142.8422
   XY=            325.1755   XZ=           -392.8232   YZ=           -326.6381

  Exact polarizability: 446.768  31.176 374.530 -27.030  16.092 367.076
 Approx polarizability: 593.321   7.262 506.841 -16.440  44.717 490.570

                      1                      2                      3
                      A                      A                      A
 Frequencies --      6.9855                 9.2333                12.3221
 Red. masses --     11.5079                 6.8353                13.0421
 Frc consts  --      0.0003                 0.0003                 0.0012
 IR Inten    --      4.5869                 3.5601                 4.2876

                      4                      5                      6
                      A                      A                      A
 Frequencies --     17.8937                22.9099                44.7689
 Red. masses --     26.1070                 5.4253                 7.6384
 Frc consts  --      0.0049                 0.0017                 0.0090
 IR Inten    --     12.8510                 0.4532                 9.6542

                      7                      8                      9
                      A                      A                      A
 Frequencies --     50.4427                63.8794                76.7597
 Red. masses --      5.0314                 2.2328                 5.7289
 Frc consts  --      0.0075                 0.0054                 0.0199
 IR Inten    --      2.7697                 0.7465                 2.0529

                     10                     11                     12
                      A                      A                      A
 Frequencies --     98.3448               106.9510               121.6511
 Red. masses --      6.1601                 3.6198                 7.7979
 Frc consts  --      0.0351                 0.0244                 0.0680
 IR Inten    --      4.0462                20.2994                 9.1078

                     13                     14                     15
                      A                      A                      A
 Frequencies --    144.3277               157.5026               192.1745
 Red. masses --      4.5023                 5.1211                 3.3872
 Frc consts  --      0.0553                 0.0748                 0.0737
 IR Inten    --      4.0742                 6.0063                20.9905

                     16                     17                     18
                      A                      A                      A
 Frequencies --    213.2234               217.7252               235.8994
 Red. masses --     29.4632                15.8526                 6.0784
 Frc consts  --      0.7892                 0.4428                 0.1993
 IR Inten    --      1.2929                 0.2957                35.1843

                     19                     20                     21
                      A                      A                      A
 Frequencies --    260.0237               273.6404               281.4951
 Red. masses --     14.9793                10.2778                 3.4141
 Frc consts  --      0.5967                 0.4534                 0.1594
 IR Inten    --     35.9774                35.8780                 8.6561

                     22                     23                     24
                      A                      A                      A
 Frequencies --    285.5978               316.2499               417.3747
 Red. masses --     12.9875                 3.7406                 2.8749
 Frc consts  --      0.6241                 0.2204                 0.2951
 IR Inten    --      0.3593                 2.0098                 4.2298

                     25                     26                     27
                      A                      A                      A
 Frequencies --    419.6745               420.1313               455.9642
 Red. masses --     11.7893                12.0076                 2.5019
 Frc consts  --      1.2234                 1.2487                 0.3065
 IR Inten    --     20.8081                49.9911                 2.9081

                     28                     29                     30
                      A                      A                      A
 Frequencies --    495.5704               518.9354               542.3261
 Red. masses --      2.4830                15.2888                17.0900
 Frc consts  --      0.3593                 2.4258                 2.9615
 IR Inten    --     10.2572                19.3568                95.7619

                     31                     32                     33
                      A                      A                      A
 Frequencies --    655.3036               726.9021               861.6251
 Red. masses --      1.6897                 5.2520                 1.8966
 Frc consts  --      0.4275                 1.6350                 0.8296
 IR Inten    --      4.2907                92.7472                82.1475

                     34                     35                     36
                      A                      A                      A
 Frequencies --    925.4360               927.5242               937.4062
 Red. masses --      1.7205                 2.1477                 1.4731
 Frc consts  --      0.8681                 1.0886                 0.7627
 IR Inten    --     11.6569               160.4759                 3.6843

                     37                     38                     39
                      A                      A                      A
 Frequencies --    980.3538               994.7498              1022.8312
 Red. masses --      1.5686                 2.7711                 1.2190
 Frc consts  --      0.8882                 1.6156                 0.7514
 IR Inten    --     32.5413                 8.6431                24.3478

                     40                     41                     42
                      A                      A                      A
 Frequencies --   1027.6410              1035.2826              1038.3584
 Red. masses --     13.4158                13.1643                 1.9113
 Frc consts  --      8.3474                 8.3132                 1.2141
 IR Inten    --     24.0297                38.6764                29.6713

                     43                     44                     45
                      A                      A                      A
 Frequencies --   1053.8858              1075.8278              1099.1119
 Red. masses --     15.8700                14.5826                 1.5107
 Frc consts  --     10.3852                 9.9442                 1.0753
 IR Inten    --     60.9011               579.4634                 4.4229

                     46                     47                     48
                      A                      A                      A
 Frequencies --   1127.5851              1148.7787              1162.6642
 Red. masses --      5.7805                 1.5817                 1.5759
 Frc consts  --      4.3303                 1.2298                 1.2552
 IR Inten    --    185.9243                 9.7847                 1.0733

                     49                     50                     51
                      A                      A                      A
 Frequencies --   1180.6402              1196.8761              1273.7938
 Red. masses --      1.7403                 1.4984                 1.1335
 Frc consts  --      1.4293                 1.2646                 1.0836
 IR Inten    --      1.9723                 0.7735                 1.7619

                     52                     53                     54
                      A                      A                      A
 Frequencies --   1285.1413              1302.3031              1311.6280
 Red. masses --      1.2508                 1.3705                 1.2571
 Frc consts  --      1.2171                 1.3695                 1.2742
 IR Inten    --     11.5861                 5.9966                 0.6573

                     55                     56                     57
                      A                      A                      A
 Frequencies --   1370.6990              1415.3825              1458.1889
 Red. masses --      1.2389                 1.3150                 1.2871
 Frc consts  --      1.3714                 1.5521                 1.6125
 IR Inten    --     40.7495                12.1786                17.2637

                     58                     59                     60
                      A                      A                      A
 Frequencies --   1483.8408              1508.4704              1523.5767
 Red. masses --      1.4408                 1.0971                 1.1306
 Frc consts  --      1.8691                 1.4709                 1.5462
 IR Inten    --     13.8839                 7.4802                 7.9290

                     61                     62                     63
                      A                      A                      A
 Frequencies --   1528.8752              1710.9046              2965.5798
 Red. masses --      1.3677                 4.6348                 1.0571
 Frc consts  --      1.8835                 7.9935                 5.4774
 IR Inten    --      5.2953                12.1823                65.2174

                     64                     65                     66
                      A                      A                      A
 Frequencies --   2976.9012              3012.9244              3058.9116
 Red. masses --      1.0670                 1.1078                 1.0964
 Frc consts  --      5.5711                 5.9247                 6.0442
 IR Inten    --     45.0483                36.9188                 6.1323

                     67                     68                     69
                      A                      A                      A
 Frequencies --   3128.1902              3138.4524              3158.6329
 Red. masses --      1.0515                 1.0576                 1.0917
 Frc consts  --      6.0625                 6.1377                 6.4174
 IR Inten    --     16.7912                17.2330                 7.5057

                     70                     71                     72
                      A                      A                      A
 Frequencies --   3166.0843              3221.8807              3224.7639
 Red. masses --      1.0900                 1.1154                 1.1208
 Frc consts  --      6.4375                 6.8215                 6.8673
 IR Inten    --     13.4535                29.9644                 9.5268

 - Thermochemistry -
 -------------------
 Temperature   298.150 Kelvin.  Pressure   1.00000 Atm.
 Atom     1 has atomic number 30 and mass  63.92915

 Molecular mass:   710.03710 amu.
 Principal axes and moments of inertia in atomic units:
                           1         2         3
     Eigenvalues --  ******************************
           X            0.67748   0.70203  -0.21948
           Y            0.48847  -0.20632   0.84784
           Z           -0.54993   0.68160   0.48270
 This molecule is an asymmetric top.
 Rotational symmetry number  1.
 Warning -- assumption of classical behavior for rotation
           may cause significant error
 Rotational temperatures (Kelvin)      0.00564     0.00053     0.00052
 Rotational constants (GHZ):           0.11742     0.01113     0.01074
 Zero-point vibrational energy     447905.1 (Joules/Mol)
                                  107.05189 (Kcal/Mol)
 Warning -- explicit consideration of  30 degrees of freedom as
           vibrations may cause significant error
 Vibrational temperatures:     10.05    13.28    17.73    25.75    32.96
          (Kelvin)             64.41    72.58    91.91   110.44   141.50
                              153.88   175.03   207.66   226.61   276.50
                              306.78   313.26   339.41   374.12   393.71
                              405.01   410.91   455.01   600.51   603.82
                              604.48   656.03   713.02   746.63   780.29
                              942.84  1045.85  1239.69  1331.50  1334.50
                             1348.72  1410.51  1431.22  1471.63  1478.55
                             1489.54  1493.97  1516.31  1547.88  1581.38
                             1622.34  1652.84  1672.81  1698.68  1722.04
                             1832.71  1849.03  1873.72  1887.14  1972.13
                             2036.42  2098.01  2134.92  2170.35  2192.09
                             2199.71  2461.61  4266.81  4283.10  4334.93
                             4401.09  4500.77  4515.53  4544.57  4555.29
                             4635.57  4639.72

 Zero-point correction=                           0.170598 (Hartree/Particle)
 Thermal correction to Energy=                    0.191743
 Thermal correction to Enthalpy=                  0.192688
 Thermal correction to Gibbs Free Energy=         0.106609
 Sum of electronic and zero-point Energies=          -4464.304468
 Sum of electronic and thermal Energies=             -4464.283322
 Sum of electronic and thermal Enthalpies=           -4464.282378
 Sum of electronic and thermal Free Energies=        -4464.368457

                     E (Thermal)             CV                S
                      KCal/Mol        Cal/Mol-Kelvin    Cal/Mol-Kelvin
 Total                  120.321             67.547            181.168
 Electronic               0.000              0.000              0.000
 Translational            0.889              2.981             45.561
 Rotational               0.889              2.981             41.256
 Vibrational            118.543             61.585             94.351
 Vibration     1          0.593              1.987              8.724
 Vibration     2          0.593              1.987              8.170
 Vibration     3          0.593              1.987              7.596
 Vibration     4          0.593              1.986              6.855
 Vibration     5          0.593              1.985              6.365
 Vibration     6          0.595              1.979              5.036
 Vibration     7          0.595              1.977              4.800
 Vibration     8          0.597              1.972              4.334
 Vibration     9          0.599              1.965              3.972
 Vibration    10          0.604              1.950              3.487
 Vibration    11          0.606              1.944              3.324
 Vibration    12          0.609              1.931              3.074
 Vibration    13          0.616              1.909              2.746
 Vibration    14          0.621              1.894              2.580
 Vibration    15          0.634              1.851              2.207
 Vibration    16          0.644              1.821              2.016
 Vibration    17          0.646              1.814              1.978
 Vibration    18          0.655              1.786              1.834
 Vibration    19          0.668              1.746              1.662
 Vibration    20          0.676              1.722              1.573
 Vibration    21          0.681              1.708              1.525
 Vibration    22          0.683              1.700              1.500
 Vibration    23          0.703              1.643              1.329
 Vibration    24          0.780              1.432              0.901
 Vibration    25          0.782              1.427              0.893
 Vibration    26          0.783              1.426              0.892
 Vibration    27          0.814              1.348              0.778
 Vibration    28          0.851              1.260              0.669
 Vibration    29          0.874              1.208              0.612
 Vibration    30          0.897              1.157              0.560

 Optimization completed on the basis of negligible forces.
    -- Stationary point found.
 Normal termination of Gaussian 16 at Mon Jun 26 12:17:27 2023.
