 Gaussian 16, Revision C.01,
 Gaussian 16:  ES64L-G16RevC.01  3-Jul-2019

 ----------------------------------------------------------------------
 # opt=(calcall,tight,qst3,cartesian) freq b3lyp/gen nosymm scf=(qc,max
 cycle=1024) pseudo=read
 ----------------------------------------------------------------------

 -------------------
 2_opt_freq_from_IRC
 -------------------
 Symbolic Z-matrix:
 Charge =  0 Multiplicity = 1

 ------------------------
 4_test_opt_freq_from_IRC
 ------------------------
 Symbolic Z-matrix:
 Charge =  0 Multiplicity = 1

 -------------
 3_ro_IRC_test
 -------------
 Symbolic Z-matrix:
 Charge =  0 Multiplicity = 1

 SCF Done:  E(RB3LYP) =  -4464.46166012     a.u. after   10 cycles
 SCF Done:  E(RB3LYP) =  -4464.46195208     a.u. after   13 cycles
 SCF Done:  E(RB3LYP) =  -4464.46192264     a.u. after    5 cycles
 SCF Done:  E(RB3LYP) =  -4464.46187533     a.u. after    5 cycles
 SCF Done:  E(RB3LYP) =  -4464.46181149     a.u. after    5 cycles
 SCF Done:  E(RB3LYP) =  -4464.46165653     a.u. after   13 cycles
 SCF Done:  E(RB3LYP) =  -4464.46165772     a.u. after    5 cycles
 SCF Done:  E(RB3LYP) =  -4464.46165876     a.u. after    5 cycles
 SCF Done:  E(RB3LYP) =  -4464.46166010     a.u. after    5 cycles
 SCF Done:  E(RB3LYP) =  -4464.46166012     a.u. after    2 cycles
 SCF Done:  E(RB3LYP) =  -4464.46166012     a.u. after    2 cycles
 Optimization completed.
    -- Stationary point found.
 ******    1 imaginary frequencies (negative Signs) ******
    1 imaginary frequencies ignored.
 Normal termination of Gaussian 16 at Wed Jun 28 02:16:27 2023.

 ------------------------------------------------------------------
 #N Geom=AllCheck Guess=TCheck SCRF=Check GenChk RB3LYP/ChkBas Freq
 ------------------------------------------------------------------

 Structure from the checkpoint file:  "3_ro_IRC_test.chk"
 -------------------
 2_opt_freq_from_IRC
 -------------------
 Charge =  0 Multiplicity = 1

                          Input orientation:
 ---------------------------------------------------------------------
 Center     Atomic      Atomic             Coordinates (Angstroms)
 Number     Number       Type             X           Y           Z
 ---------------------------------------------------------------------
      1         30           0       -1.451491   -0.057618    0.039118
      2          8           0       -1.357024    1.539553    1.344161
      3          8           0        0.900389    1.609596    1.250544
      4          8           0       -0.528402    1.191553   -1.458968
      5          8           0        1.719176    1.365105   -1.605882
      6          6           0       -0.218228    2.002472    1.655543
      7          6           0        0.539459    1.628648   -1.965956
      8         30           0        1.976347    0.035131   -0.072837
      9          8           0        0.961079   -1.520825   -1.312890
     10          8           0       -1.296356   -1.644274   -1.272953
     11          8           0        1.911154   -1.213991    1.515243
     12          8           0       -0.350211   -1.223138    1.483387
     13          6           0       -0.141905   -2.013489   -1.645829
     14          6           0        0.775416   -1.570318    1.931541
     15          1           0       -0.212410    2.855121    2.355117
     16          1           0        0.452259    2.325134   -2.814762
     17          1           0       -0.104037   -2.864249   -2.346700
     18          1           0        0.791031   -2.269224    2.782692
     19          6           0       -4.290846    0.719773    0.857192
     20          6           0       -5.682192    0.691517    0.922528
     21          6           0       -6.372494   -0.266583    0.178008
     22          6           0       -5.646460   -1.164155   -0.606856
     23          6           0       -4.256318   -1.073614   -0.620675
     24          7           0       -3.591488   -0.147797    0.098858
     25          1           0       -7.457187   -0.312940    0.208912
     26          1           0       -3.699950    1.440916    1.412882
     27          1           0       -6.206250    1.408245    1.545704
     28          1           0       -6.142067   -1.924463   -1.200985
     29          1           0       -3.638620   -1.743207   -1.210660
     30          6           0        3.275334    3.710264    4.634708
     31          6           0        4.193523    3.600982    3.670482
     32          6           0        3.885933    3.554061    2.202050
     33          8           0        4.571728    2.455979    1.622764
     34          6           0        4.501487    2.451918    0.196642
     35          6           0        4.954985    1.096777   -0.299287
     36          6           0        4.834933    0.813081   -1.727230
     37          8           0        4.010909    0.036433   -0.280246
     38          1           0        3.553893    3.769636    5.683551
     39          1           0        2.212002    3.732236    4.406384
     40          1           0        5.252239    3.552456    3.925411
     41          1           0        4.228128    4.494448    1.729432
     42          1           0        2.803043    3.461116    2.029886
     43          1           0        5.163458    3.223957   -0.224504
     44          1           0        3.474582    2.647094   -0.141784
     45          1           0        5.903993    0.809499    0.165902
     46          1           0        5.390752   -0.010811   -2.143805
     47          1           0        4.008998    1.235278   -2.278435
     48          7           0       12.566652   10.349880  -11.705526
     49          6           0       12.018190   11.137578  -12.914680
     50          6           0       10.513428   11.094173  -13.159752
     51          1           0       12.556042   10.741989  -13.788409
     52          1           0       12.321218   12.173186  -12.738183
     53          1           0       10.346575   11.628303  -14.100617
     54          1           0       10.126737   10.084986  -13.300922
     55          1           0        9.926341   11.600176  -12.387448
     56          6           0       11.634802   10.520578  -10.518859
     57          6           0       12.082772    9.876223   -9.209415
     58          1           0       10.671150   10.112116  -10.818854
     59          1           0       11.509004   11.599820  -10.390844
     60          1           0       11.303743   10.066482   -8.464393
     61          1           0       12.193716    8.792343   -9.293240
     62          1           0       13.013231   10.296001   -8.820013
     63          6           0       13.931371   10.954572  -11.342087
     64          6           0       14.897866   11.185542  -12.501740
     65          1           0       14.371754   10.272423  -10.613560
     66          1           0       13.709505   11.896961  -10.831256
     67          1           0       15.884712   11.378760  -12.068138
     68          1           0       14.973789   10.335533  -13.186337
     69          1           0       14.622338   12.054412  -13.102778
     70          6           0       12.802675    8.867292  -12.042767
     71          6           0       11.574272    8.015242  -12.329415
     72          1           0       13.362724    8.468508  -11.194577
     73          1           0       13.429437    8.862942  -12.943458
     74          1           0       11.927303    6.981610  -12.401192
     75          1           0       10.806080    8.046741  -11.549915
     76          1           0       11.139989    8.256157  -13.300620
     77         35           0        6.475795    2.413812   -3.054971
 ---------------------------------------------------------------------

 SCF Done:  E(RB3LYP) =  -4464.46166012     a.u. after    1 cycles

 Alpha  occ. eigenvalues -- -482.49543 -61.58007 -56.14796 -56.14688 -56.14681
 Alpha  occ. eigenvalues --  -19.08199 -19.07604 -19.07507 -19.07072 -19.06907
 Alpha  occ. eigenvalues --  -19.06638 -19.06602 -19.06594 -19.06408 -19.05892
 Alpha  occ. eigenvalues --  -14.57364 -14.35293 -10.36195 -10.35976 -10.35856
 Alpha  occ. eigenvalues --  -10.35479 -10.30125 -10.29748 -10.29585 -10.29351
 Alpha  occ. eigenvalues --  -10.23769 -10.23668 -10.23629 -10.23263 -10.22078
 Alpha  occ. eigenvalues --  -10.22075 -10.20907 -10.19617 -10.19617 -10.17003
 Alpha  occ. eigenvalues --  -10.16335 -10.16023 -10.15070 -10.13982 -10.13296
 Alpha  occ. eigenvalues --   -8.34988  -6.35995  -6.35674  -6.35664  -2.48059
 Alpha  occ. eigenvalues --   -2.47975  -2.47967  -2.47711  -2.47711  -1.12359
 Alpha  occ. eigenvalues --   -1.00189  -0.99725  -0.99606  -0.99247  -0.96732
 Alpha  occ. eigenvalues --   -0.94904  -0.92128  -0.91490  -0.91262  -0.91154
 Alpha  occ. eigenvalues --   -0.90907  -0.90656  -0.90475  -0.90224  -0.85186
 Alpha  occ. eigenvalues --   -0.80636  -0.77808  -0.77219  -0.76333  -0.76212
 Alpha  occ. eigenvalues --   -0.73462  -0.69500  -0.67309  -0.63843  -0.63733
 Alpha  occ. eigenvalues --   -0.63313  -0.62973  -0.62900  -0.61904  -0.59362
 Alpha  occ. eigenvalues --   -0.58402  -0.58066  -0.56448  -0.55983  -0.55704
 Alpha  occ. eigenvalues --   -0.55438  -0.55268  -0.55026  -0.54711  -0.54003
 Alpha  occ. eigenvalues --   -0.53908  -0.53459  -0.53248  -0.52754  -0.52407
 Alpha  occ. eigenvalues --   -0.52204  -0.52113  -0.52014  -0.51671  -0.51370
 Alpha  occ. eigenvalues --   -0.51317  -0.51127  -0.51069  -0.50782  -0.50576
 Alpha  occ. eigenvalues --   -0.50150  -0.49783  -0.49545  -0.48868  -0.48370
 Alpha  occ. eigenvalues --   -0.48142  -0.47721  -0.47554  -0.46668  -0.46635
 Alpha  occ. eigenvalues --   -0.46163  -0.43498  -0.43354  -0.43164  -0.42956
 Alpha  occ. eigenvalues --   -0.41843  -0.41309  -0.41047  -0.40814  -0.40217
 Alpha  occ. eigenvalues --   -0.40092  -0.39699  -0.39476  -0.39288  -0.38891
 Alpha  occ. eigenvalues --   -0.37607  -0.36947  -0.36740  -0.36131  -0.35949
 Alpha  occ. eigenvalues --   -0.35322  -0.35137  -0.33476  -0.33045  -0.31555
 Alpha  occ. eigenvalues --   -0.30730  -0.30023  -0.29349  -0.28486  -0.26536
 Alpha  occ. eigenvalues --   -0.26306  -0.25899  -0.23785  -0.23550  -0.23243
 Alpha  occ. eigenvalues --   -0.22995  -0.22483  -0.22169  -0.22097  -0.21731
 Alpha  occ. eigenvalues --   -0.21553  -0.21384  -0.21243  -0.20952  -0.20040
 Alpha  occ. eigenvalues --   -0.19113  -0.18485  -0.13737  -0.13484  -0.13458
 Alpha virt. eigenvalues --   -0.09818  -0.08122  -0.07998  -0.07770  -0.05859
 Alpha virt. eigenvalues --   -0.05726  -0.04701  -0.04381  -0.04037  -0.03810
 Alpha virt. eigenvalues --   -0.03775  -0.02152  -0.01960  -0.01485  -0.01300

 Mulliken charges:
               1
     1  Zn   0.740166
     2  O   -0.501792
     3  O   -0.472203
     4  O   -0.445281
     5  O   -0.511469
     6  C    0.432012
     7  C    0.463841
     8  Zn   0.533458
     9  O   -0.441422
    10  O   -0.514346
    11  O   -0.417683
    12  O   -0.458658
    13  C    0.440668
    14  C    0.427472
    15  H    0.065434
    16  H    0.078792
    17  H    0.075141
    18  H    0.076900
    19  C   -0.307567
    20  C    0.101245
    21  C   -0.569054
    22  C    0.064273
    23  C   -0.311239
    24  N    0.213327
    25  H    0.137680
    26  H    0.199053
    27  H    0.138576
    28  H    0.138628
    29  H    0.199245
    30  C   -0.305957
    31  C    0.119473
    32  C   -0.252228
    33  O   -0.306011
    34  C   -0.176943
    35  C    0.311103
    36  C   -0.367146
    37  O   -0.360705
    38  H    0.120877
    39  H    0.127999
    40  H    0.127518
    41  H    0.114349
    42  H    0.141832
    43  H    0.152653
    44  H    0.132556
    45  H    0.125567
    46  H    0.190092
    47  H    0.227975
    48  N   -0.711516
    49  C    0.077808
    50  C   -0.610115
    51  H    0.191734
    52  H    0.188319
    53  H    0.186069
    54  H    0.173811
    55  H    0.179943
    56  C    0.047646
    57  C   -0.558582
    58  H    0.195323
    59  H    0.191596
    60  H    0.196955
    61  H    0.178875
    62  H    0.173845
    63  C    0.119402
    64  C   -0.535605
    65  H    0.188077
    66  H    0.194317
    67  H    0.188453
    68  H    0.171322
    69  H    0.175164
    70  C    0.032561
    71  C   -0.541582
    72  H    0.187239
    73  H    0.182557
    74  H    0.191300
    75  H    0.177877
    76  H    0.167205
    77  Br  -0.698200
 Sum of Mulliken charges =  -0.00000

 Dipole moment (field-independent basis, Debye):
    X=             32.6327    Y=             42.4136    Z=            -48.9272  Tot=             72.5098
 Quadrupole moment (field-independent basis, Debye-Ang):
   XX=            397.5108   YY=            235.7289   ZZ=            375.1074
   XY=            569.3012   XZ=           -649.2484   YZ=           -550.6671

  Exact polarizability:     469.954      38.786     348.141     -43.426       5.875     388.484
 Approx polarizability:     631.592      35.376     503.866     -52.570       4.756     525.514

 ******    1 imaginary frequencies (negative Signs) ******

                      1                      2                      3
                      A                      A                      A
 Frequencies --   -356.4044                 7.3944                12.4717
 Red. masses --     11.5913                 9.8948                 6.5051
 Frc consts  --      0.8675                 0.0003                 0.0006
 IR Inten    --   1122.2721                 1.5814                 0.7049

                      4                      5                      6
                      A                      A                      A
 Frequencies --     16.9990                19.5062                46.3824
 Red. masses --     13.8264                 6.1556                 5.0031
 Frc consts  --      0.0024                 0.0014                 0.0063
 IR Inten    --      2.4690                 0.9875                 1.9552

                      7                      8                      9
                      A                      A                      A
 Frequencies --     48.6615                58.5534                70.8746
 Red. masses --      4.8982                 3.6488                 5.3969
 Frc consts  --      0.0068                 0.0074                 0.0160
 IR Inten    --      3.6430                 3.6148                 0.4816

                     10                     11                     12
                      A                      A                      A
 Frequencies --     92.9040               103.5271               125.4189
 Red. masses --      4.4232                 8.9804                 4.8290
 Frc consts  --      0.0225                 0.0567                 0.0448
 IR Inten    --      2.0774                 8.2743                21.2235

                     13                     14                     15
                      A                      A                      A
 Frequencies --    134.1286               167.3212               176.7458
 Red. masses --      5.0731                 3.6773                 5.2933
 Frc consts  --      0.0538                 0.0607                 0.0974
 IR Inten    --      1.6144                 2.3320                 5.1503

                     16                     17                     18
                      A                      A                      A
 Frequencies --    205.7797               215.7250               241.4967
 Red. masses --     25.1769                16.0390                 7.0547
 Frc consts  --      0.6281                 0.4398                 0.2424
 IR Inten    --      0.6188                 0.0271                 2.9632

                     19                     20                     21
                      A                      A                      A
 Frequencies --    254.4521               271.2525               279.9471
 Red. masses --     12.7776                13.1498                12.3237
 Frc consts  --      0.4874                 0.5701                 0.5690
 IR Inten    --     38.1737                37.8113                 1.3464

                     22                     23                     24
                      A                      A                      A
 Frequencies --    285.0655               333.5959               348.6828
 Red. masses --      3.3780                 3.7836                 4.8263
 Frc consts  --      0.1617                 0.2481                 0.3457
 IR Inten    --     16.6709                69.7622                18.2799

                     25                     26                     27
                      A                      A                      A
 Frequencies --    409.6874               411.7155               429.8170
 Red. masses --     15.9448                15.9134                 2.5410
 Frc consts  --      1.5768                 1.5893                 0.2766
 IR Inten    --     46.9253                21.0703                 5.3425

                     28                     29                     30
                      A                      A                      A
 Frequencies --    475.6233               503.1081               517.6495
 Red. masses --      2.4447                15.8583                 2.7188
 Frc consts  --      0.3258                 2.3650                 0.4292
 IR Inten    --      3.4260                23.6793                17.5184

                     31                     32                     33
                      A                      A                      A
 Frequencies --    523.6730               648.9194               809.8697
 Red. masses --     16.9740                 1.7210                 1.3072
 Frc consts  --      2.7425                 0.4270                 0.5052
 IR Inten    --     84.7344                 6.4099                15.4174

                     34                     35                     36
                      A                      A                      A
 Frequencies --    901.7092               934.4268               937.7868
 Red. masses --      1.8822                 1.3612                 1.4508
 Frc consts  --      0.9017                 0.7003                 0.7517
 IR Inten    --     90.2179                22.9434                39.3464

                     37                     38                     39
                      A                      A                      A
 Frequencies --    960.5247               986.1343              1005.4474
 Red. masses --      1.4291                 1.9401                 1.3991
 Frc consts  --      0.7768                 1.1116                 0.8333
 IR Inten    --     45.9066                 3.9737                 1.8402

                     40                     41                     42
                      A                      A                      A
 Frequencies --   1024.9214              1038.8163              1040.8804
 Red. masses --      1.2070                 5.0052                 3.6083
 Frc consts  --      0.7470                 3.1824                 2.3033
 IR Inten    --     14.8508                68.2414                31.0335

                     43                     44                     45
                      A                      A                      A
 Frequencies --   1046.9443              1059.0566              1079.4177
 Red. masses --     13.3073                15.7173                 7.3548
 Frc consts  --      8.5938                10.3864                 5.0489
 IR Inten    --     32.3816                55.3645               668.8202

                     46                     47                     48
                      A                      A                      A
 Frequencies --   1093.5773              1136.3071              1160.9080
 Red. masses --      2.5327                 4.8823                 2.3025
 Frc consts  --      1.7845                 3.7142                 1.8283
 IR Inten    --     27.2002               193.7387                36.9504

                     49                     50                     51
                      A                      A                      A
 Frequencies --   1186.6187              1208.0891              1260.5476
 Red. masses --      2.0279                 1.4129                 1.2828
 Frc consts  --      1.6823                 1.2149                 1.2009
 IR Inten    --     16.2077                 9.5650                20.1286

                     52                     53                     54
                      A                      A                      A
 Frequencies --   1269.6147              1299.9583              1310.2843
 Red. masses --      1.2031                 1.3451                 1.2806
 Frc consts  --      1.1426                 1.3393                 1.2953
 IR Inten    --     16.3129                 4.8760                 0.1042

                     55                     56                     57
                      A                      A                      A
 Frequencies --   1348.3872              1395.5071              1449.0479
 Red. masses --      1.2127                 1.3174                 1.2782
 Frc consts  --      1.2991                 1.5115                 1.5813
 IR Inten    --     28.2215                15.4058                 3.5245

                     58                     59                     60
                      A                      A                      A
 Frequencies --   1468.2139              1491.8660              1502.9708
 Red. masses --      1.2683                 1.7519                 1.1006
 Frc consts  --      1.6109                 2.2973                 1.4649
 IR Inten    --     15.1233                15.0456                 1.4528

                     61                     62                     63
                      A                      A                      A
 Frequencies --   1518.4917              1713.8627              2932.7949
 Red. masses --      1.0851                 4.6710                 1.0684
 Frc consts  --      1.4742                 8.0837                 5.4141
 IR Inten    --      4.7310                 6.3606                58.9579

                     64                     65                     66
                      A                      A                      A
 Frequencies --   3005.2185              3023.3004              3054.6499
 Red. masses --      1.0582                 1.0900                 1.1028
 Frc consts  --      5.6307                 5.8699                 6.0630
 IR Inten    --     24.5081                21.1756                 8.3229

                     67                     68                     69
                      A                      A                      A
 Frequencies --   3078.2704              3142.3842              3156.9196
 Red. masses --      1.0896                 1.0584                 1.0910
 Frc consts  --      6.0829                 6.1578                 6.4063
 IR Inten    --     48.3160                16.0886                11.3455

                     70                     71                     72
                      A                      A                      A
 Frequencies --   3227.4266              3239.9637              3369.7098
 Red. masses --      1.1158                 1.0516                 1.1254
 Frc consts  --      6.8478                 6.5039                 7.5293
 IR Inten    --     27.2460                21.3857                 8.8756

 - Thermochemistry -
 -------------------
 Temperature   298.150 Kelvin.  Pressure   1.00000 Atm.
 Atom     1 has atomic number 30 and mass  63.92915

 Molecular mass:   710.03710 amu.
 Principal axes and moments of inertia in atomic units:
                           1         2         3
     Eigenvalues --  ******************************
           X            0.66510   0.68003  -0.30855
           Y            0.47977  -0.07250   0.87439
           Z           -0.57224   0.72959   0.37448
 This molecule is an asymmetric top.
 Rotational symmetry number  1.
 Warning -- assumption of classical behavior for rotation
           may cause significant error
 Rotational temperatures (Kelvin)      0.00476     0.00054     0.00052
 Rotational constants (GHZ):           0.09925     0.01128     0.01077
    1 imaginary frequencies ignored.
 Zero-point vibrational energy     444460.0 (Joules/Mol)
                                  106.22848 (Kcal/Mol)
 Warning -- explicit consideration of  30 degrees of freedom as
           vibrations may cause significant error
 Vibrational temperatures:     10.64    17.94    24.46    28.07    66.73
          (Kelvin)             70.01    84.25   101.97   133.67   148.95
                              180.45   192.98   240.74   254.30   296.07
                              310.38   347.46   366.10   390.27   402.78
                              410.15   479.97   501.68   589.45   592.37
                              618.41   684.32   723.86   744.78   753.45
                              933.65  1165.22  1297.36  1344.43  1349.27
                             1381.98  1418.83  1446.61  1474.63  1494.62
                             1497.59  1506.32  1523.75  1553.04  1573.41
                             1634.89  1670.29  1707.28  1738.17  1813.65
                             1826.69  1870.35  1885.21  1940.03  2007.82
                             2084.86  2112.43  2146.46  2162.44  2184.77
                             2465.87  4219.64  4323.84  4349.85  4394.96
                             4428.94  4521.19  4542.10  4643.55  4661.59
                             4848.26

 Zero-point correction=                           0.169286 (Hartree/Particle)
 Thermal correction to Energy=                    0.189872
 Thermal correction to Enthalpy=                  0.190816
 Thermal correction to Gibbs Free Energy=         0.107634
 Sum of electronic and zero-point Energies=          -4464.292374
 Sum of electronic and thermal Energies=             -4464.271788
 Sum of electronic and thermal Enthalpies=           -4464.270844
 Sum of electronic and thermal Free Energies=        -4464.354026

                     E (Thermal)             CV                S
                      KCal/Mol        Cal/Mol-Kelvin    Cal/Mol-Kelvin
 Total                  119.146             66.656            175.071
 Electronic               0.000              0.000              0.000
 Translational            0.889              2.981             45.561
 Rotational               0.889              2.981             41.407
 Vibrational            117.369             60.694             88.103
 Vibration     1          0.593              1.987              8.611
 Vibration     2          0.593              1.987              7.572
 Vibration     3          0.593              1.986              6.957
 Vibration     4          0.593              1.986              6.684
 Vibration     5          0.595              1.979              4.966
 Vibration     6          0.595              1.978              4.871
 Vibration     7          0.596              1.974              4.505
 Vibration     8          0.598              1.968              4.129
 Vibration     9          0.602              1.954              3.598
 Vibration    10          0.605              1.946              3.387
 Vibration    11          0.610              1.928              3.015
 Vibration    12          0.613              1.919              2.886
 Vibration    13          0.624              1.883              2.465
 Vibration    14          0.628              1.871              2.363
 Vibration    15          0.640              1.832              2.081
 Vibration    16          0.645              1.817              1.995
 Vibration    17          0.658              1.777              1.792
 Vibration    18          0.665              1.755              1.700
 Vibration    19          0.675              1.726              1.588
 Vibration    20          0.680              1.711              1.534
 Vibration    21          0.683              1.701              1.503
 Vibration    22          0.715              1.608              1.243
 Vibration    23          0.726              1.578              1.172
 Vibration    24          0.774              1.449              0.928
 Vibration    25          0.776              1.445              0.921
 Vibration    26          0.791              1.405              0.859
 Vibration    27          0.832              1.304              0.722
 Vibration    28          0.858              1.243              0.650
 Vibration    29          0.873              1.211              0.615
 Vibration    30          0.879              1.198              0.602

 Optimization completed.
    -- Stationary point found.
 Normal termination of Gaussian 16 at Wed Jun 28 02:42:13 2023.
