 Gaussian 16, Revision A.03,
 Gaussian 16:  ES64L-G16RevA.03 25-Dec-2016

 ----------------------------------------------------------------------
 # opt=(calcall,tight,cartesian) freq b3lyp/gen nosymm scf=(qc,maxcycle
 =1024) pseudo=read
 ----------------------------------------------------------------------

 ------------------------
 4_test_opt_freq_from_IRC
 ------------------------
 Symbolic Z-matrix:
 Charge =  0 Multiplicity = 1

 SCF Done:  E(RB3LYP) =  -4464.47569405     a.u. after    9 cycles
 SCF Done:  E(RB3LYP) =  -4464.47574310     a.u. after   10 cycles
 SCF Done:  E(RB3LYP) =  -4464.47576465     a.u. after   11 cycles
 SCF Done:  E(RB3LYP) =  -4464.47582608     a.u. after    7 cycles
 SCF Done:  E(RB3LYP) =  -4464.47582339     a.u. after   12 cycles
 SCF Done:  E(RB3LYP) =  -4464.47586272     a.u. after    9 cycles
 SCF Done:  E(RB3LYP) =  -4464.47586425     a.u. after    5 cycles
 SCF Done:  E(RB3LYP) =  -4464.47587401     a.u. after    9 cycles
 SCF Done:  E(RB3LYP) =  -4464.47587633     a.u. after    7 cycles
 SCF Done:  E(RB3LYP) =  -4464.47587691     a.u. after    3 cycles
 SCF Done:  E(RB3LYP) =  -4464.47587700     a.u. after    3 cycles
 SCF Done:  E(RB3LYP) =  -4464.47587701     a.u. after    2 cycles
 SCF Done:  E(RB3LYP) =  -4464.47587704     a.u. after    2 cycles
 SCF Done:  E(RB3LYP) =  -4464.47587704     a.u. after    2 cycles
 Optimization completed on the basis of negligible forces.
    -- Stationary point found.
 Normal termination of Gaussian 16 at Sun Jun 25 14:02:40 2023.

 ------------------------------------------------------------------
 #N Geom=AllCheck Guess=TCheck SCRF=Check GenChk RB3LYP/ChkBas Freq
 ------------------------------------------------------------------

 Structure from the checkpoint file:  "4_test_opt_freq_from_IRC.chk"
 ------------------------
 4_test_opt_freq_from_IRC
 ------------------------
 Charge =  0 Multiplicity = 1

                          Input orientation:
 ---------------------------------------------------------------------
 Center     Atomic      Atomic             Coordinates (Angstroms)
 Number     Number       Type             X           Y           Z
 ---------------------------------------------------------------------
      1         30           0       -4.694489   -2.528905    2.326317
      2          8           0       -4.600022   -0.931734    3.631360
      3          8           0       -2.342444   -0.856588    3.540868
      4          8           0       -3.771400   -1.279734    0.828231
      5          8           0       -1.522116   -1.106837    0.669887
      6          6           0       -3.461226   -0.468815    3.942742
      7          6           0       -2.703539   -0.842639    0.321243
      8         30           0       -1.144669   -2.431471    2.223426
      9          8           0       -2.282515   -3.993245    0.968859
     10          8           0       -4.539354   -4.115561    1.014246
     11          8           0       -1.331693   -3.693292    3.804351
     12          8           0       -3.593209   -3.694425    3.770586
     13          6           0       -3.384903   -4.484776    0.641370
     14          6           0       -2.467582   -4.041605    4.218740
     15          1           0       -3.455408    0.383834    4.642316
     16          1           0       -2.790739   -0.146153   -0.527563
     17          1           0       -3.347035   -5.335536   -0.059501
     18          1           0       -2.451967   -4.740511    5.069891
     19          6           0       -7.533844   -1.751514    3.144391
     20          6           0       -8.925190   -1.779770    3.209727
     21          6           0       -9.615492   -2.737870    2.465207
     22          6           0       -8.889458   -3.635442    1.680343
     23          6           0       -7.499316   -3.544901    1.666524
     24          7           0       -6.834486   -2.619084    2.386057
     25          1           0      -10.700185   -2.784227    2.496111
     26          1           0       -6.942948   -1.030371    3.700081
     27          1           0       -9.449248   -1.063042    3.832903
     28          1           0       -9.385065   -4.395750    1.086214
     29          1           0       -6.881618   -4.214494    1.076539
     30          6           0        0.532586    1.380780    6.640391
     31          6           0        1.306614    1.368736    5.551267
     32          6           0        0.805985    1.165342    4.150252
     33          8           0        1.595867    0.174182    3.518820
     34          6           0        1.301662    0.027495    2.127194
     35          6           0        1.672770   -1.394207    1.683749
     36          6           0        1.649718   -1.537590    0.154226
     37          8           0        0.814938   -2.371284    2.145298
     38          1           0        0.943729    1.559381    7.630768
     39          1           0       -0.537528    1.196357    6.577336
     40          1           0        2.382073    1.523662    5.642921
     41          1           0        0.891457    2.122165    3.597235
     42          1           0       -0.254717    0.871610    4.150068
     43          1           0        1.868764    0.782747    1.558796
     44          1           0        0.230304    0.183278    1.944205
     45          1           0        2.703354   -1.584055    2.039859
     46          1           0        1.897850   -2.557476   -0.128496
     47          1           0        0.700825   -1.224127   -0.277150
     48          7           0        9.323654    7.878593   -9.418327
     49          6           0        8.775192    8.666291  -10.627481
     50          6           0        7.270430    8.622886  -10.872553
     51          1           0        9.313044    8.270702  -11.501210
     52          1           0        9.078220    9.701899  -10.450984
     53          1           0        7.103577    9.157016  -11.813418
     54          1           0        6.883739    7.613699  -11.013723
     55          1           0        6.683343    9.128889  -10.100249
     56          6           0        8.391804    8.049291   -8.231660
     57          6           0        8.839774    7.404936   -6.922216
     58          1           0        7.428152    7.640829   -8.531655
     59          1           0        8.266006    9.128533   -8.103645
     60          1           0        8.060745    7.595195   -6.177194
     61          1           0        8.950718    6.321056   -7.006041
     62          1           0        9.770233    7.824714   -6.532814
     63          6           0       10.688373    8.483285   -9.054888
     64          6           0       11.654868    8.714255  -10.214541
     65          1           0       11.128756    7.801136   -8.326361
     66          1           0       10.466507    9.425674   -8.544057
     67          1           0       12.641714    8.907473   -9.780939
     68          1           0       11.730791    7.864246  -10.899138
     69          1           0       11.379340    9.583125  -10.815579
     70          6           0        9.559677    6.396005   -9.755568
     71          6           0        8.331274    5.543955  -10.042216
     72          1           0       10.119726    5.997221   -8.907378
     73          1           0       10.186439    6.391655  -10.656259
     74          1           0        8.684305    4.510323  -10.113993
     75          1           0        7.563082    5.575454   -9.262716
     76          1           0        7.896991    5.784870  -11.013421
     77         35           0        3.054866   -0.423572   -0.850484
 ---------------------------------------------------------------------

 SCF Done:  E(RB3LYP) =  -4464.47587704     a.u. after    1 cycles

 Alpha  occ. eigenvalues -- -482.57832 -61.66328 -56.23228 -56.22947 -56.22936
 Alpha  occ. eigenvalues --  -19.06411 -19.05960 -19.05907 -19.05387 -19.05304
 Alpha  occ. eigenvalues --  -19.04681 -19.04667 -19.04586 -19.04554 -18.98434
 Alpha  occ. eigenvalues --  -14.57768 -14.34349 -10.36564 -10.36354 -10.36278
 Alpha  occ. eigenvalues --  -10.35923 -10.30464 -10.30116 -10.30037 -10.29853
 Alpha  occ. eigenvalues --  -10.22135 -10.22011 -10.21912 -10.21350 -10.21204
 Alpha  occ. eigenvalues --  -10.21201 -10.20133 -10.18820 -10.18819 -10.15667
 Alpha  occ. eigenvalues --  -10.14069 -10.13286 -10.12964 -10.12959 -10.12259
 Alpha  occ. eigenvalues --   -8.43389  -6.44834  -6.43842  -6.43831  -2.56822
 Alpha  occ. eigenvalues --   -2.56547  -2.56537  -2.55747  -2.55747  -1.12763
 Alpha  occ. eigenvalues --   -0.98447  -0.98010  -0.97876  -0.97340  -0.94891
 Alpha  occ. eigenvalues --   -0.94004  -0.91058  -0.90852  -0.90666  -0.89827
 Alpha  occ. eigenvalues --   -0.89565  -0.89489  -0.89008  -0.85596  -0.85134
 Alpha  occ. eigenvalues --   -0.79830  -0.78252  -0.77600  -0.76613  -0.75492
 Alpha  occ. eigenvalues --   -0.72228  -0.69919  -0.69658  -0.64252  -0.64131
 Alpha  occ. eigenvalues --   -0.64129  -0.62456  -0.62306  -0.62081  -0.59914
 Alpha  occ. eigenvalues --   -0.59784  -0.58440  -0.56103  -0.55946  -0.55712
 Alpha  occ. eigenvalues --   -0.54797  -0.53763  -0.53423  -0.52857  -0.52805
 Alpha  occ. eigenvalues --   -0.52426  -0.52334  -0.52057  -0.51689  -0.51505
 Alpha  occ. eigenvalues --   -0.51165  -0.51056  -0.50975  -0.50579  -0.50371
 Alpha  occ. eigenvalues --   -0.50229  -0.49972  -0.49944  -0.49699  -0.49147
 Alpha  occ. eigenvalues --   -0.48939  -0.48891  -0.48808  -0.48115  -0.47960
 Alpha  occ. eigenvalues --   -0.47301  -0.47290  -0.47051  -0.46816  -0.46581
 Alpha  occ. eigenvalues --   -0.45839  -0.42217  -0.41933  -0.41815  -0.40986
 Alpha  occ. eigenvalues --   -0.40177  -0.39631  -0.39480  -0.39132  -0.38851
 Alpha  occ. eigenvalues --   -0.38728  -0.38075  -0.37590  -0.37568  -0.36647
 Alpha  occ. eigenvalues --   -0.35258  -0.35210  -0.35080  -0.34763  -0.33730
 Alpha  occ. eigenvalues --   -0.33584  -0.33383  -0.31761  -0.30887  -0.30358
 Alpha  occ. eigenvalues --   -0.30002  -0.29047  -0.28520  -0.27012  -0.26073
 Alpha  occ. eigenvalues --   -0.25482  -0.24483  -0.23991  -0.22133  -0.21755
 Alpha  occ. eigenvalues --   -0.21362  -0.20877  -0.20715  -0.20456  -0.20254
 Alpha  occ. eigenvalues --   -0.20047  -0.19892  -0.19613  -0.19502  -0.19389
 Alpha  occ. eigenvalues --   -0.18996  -0.17705  -0.17059  -0.13619  -0.13172
 Alpha virt. eigenvalues --   -0.10177  -0.08490  -0.08390  -0.08217  -0.06233
 Alpha virt. eigenvalues --   -0.06122  -0.05079  -0.04796  -0.04427  -0.04245
 Alpha virt. eigenvalues --   -0.02945  -0.02570  -0.02353  -0.01713  -0.01150

 Mulliken charges:
               1
     1  Zn   0.756852
     2  O   -0.511094
     3  O   -0.469600
     4  O   -0.447811
     5  O   -0.503166
     6  C    0.418759
     7  C    0.470206
     8  Zn   0.486809
     9  O   -0.453268
    10  O   -0.521524
    11  O   -0.416207
    12  O   -0.468892
    13  C    0.427429
    14  C    0.419375
    15  H    0.059441
    16  H    0.064896
    17  H    0.065435
    18  H    0.068399
    19  C   -0.299005
    20  C    0.094052
    21  C   -0.568333
    22  C    0.063423
    23  C   -0.302091
    24  N    0.207157
    25  H    0.135157
    26  H    0.200281
    27  H    0.136531
    28  H    0.136476
    29  H    0.200435
    30  C   -0.320662
    31  C    0.124379
    32  C   -0.214606
    33  O   -0.306818
    34  C   -0.306364
    35  C    0.458351
    36  C   -0.370706
    37  O   -0.476575
    38  H    0.116636
    39  H    0.133077
    40  H    0.121840
    41  H    0.105214
    42  H    0.149471
    43  H    0.107094
    44  H    0.134016
    45  H    0.099271
    46  H    0.175299
    47  H    0.203148
    48  N   -0.711752
    49  C    0.078147
    50  C   -0.609557
    51  H    0.192203
    52  H    0.188871
    53  H    0.186900
    54  H    0.173360
    55  H    0.179810
    56  C    0.047504
    57  C   -0.559787
    58  H    0.194886
    59  H    0.192198
    60  H    0.195839
    61  H    0.177630
    62  H    0.174561
    63  C    0.119738
    64  C   -0.535323
    65  H    0.187700
    66  H    0.194617
    67  H    0.188894
    68  H    0.171437
    69  H    0.175678
    70  C    0.033294
    71  C   -0.542411
    72  H    0.186706
    73  H    0.183280
    74  H    0.191024
    75  H    0.176517
    76  H    0.168038
    77  Br  -0.382188
 Sum of Mulliken charges =  -0.00000

 Dipole moment (field-independent basis, Debye):
    X=             38.2966    Y=             45.8276    Z=            -54.0973  Tot=             80.5811
 Quadrupole moment (field-independent basis, Debye-Ang):
   XX=            194.9849   YY=             17.9492   ZZ=            143.7763
   XY=            352.4562   XZ=           -423.6254   YZ=           -329.5518

  Exact polarizability: 456.679  31.265 339.048 -32.314  14.189 375.934
 Approx polarizability: 616.803  23.997 485.367 -38.775  17.517 508.755

                      1                      2                      3
                      A                      A                      A
 Frequencies --      6.5171                11.4666                16.3285
 Red. masses --     11.0306                 5.9690                 6.7704
 Frc consts  --      0.0003                 0.0005                 0.0011
 IR Inten    --      0.2638                 0.1792                 0.2375

                      4                      5                      6
                      A                      A                      A
 Frequencies --     19.8476                36.1588                47.5155
 Red. masses --     11.3038                 4.1005                 4.9700
 Frc consts  --      0.0026                 0.0032                 0.0066
 IR Inten    --      0.7989                 1.0155                 1.9863

                      7                      8                      9
                      A                      A                      A
 Frequencies --     59.4625                84.9369                93.0937
 Red. masses --      3.9894                 4.5205                 4.2268
 Frc consts  --      0.0083                 0.0192                 0.0216
 IR Inten    --      2.8302                 1.0179                 0.9096

                     10                     11                     12
                      A                      A                      A
 Frequencies --     98.7644               120.5989               131.2900
 Red. masses --     16.9225                 4.7662                 3.6373
 Frc consts  --      0.0973                 0.0408                 0.0369
 IR Inten    --     13.2124                 6.3445                 7.1317

                     13                     14                     15
                      A                      A                      A
 Frequencies --    148.6137               183.4303               204.0555
 Red. masses --      5.1989                 3.7707                19.2325
 Frc consts  --      0.0677                 0.0747                 0.4718
 IR Inten    --     17.7824                15.2393                 2.7787

                     16                     17                     18
                      A                      A                      A
 Frequencies --    213.4645               247.0917               263.7220
 Red. masses --     15.8990                13.3779                15.5300
 Frc consts  --      0.4268                 0.4812                 0.6364
 IR Inten    --      0.0733                32.9018                37.4509

                     19                     20                     21
                      A                      A                      A
 Frequencies --    275.1684               281.7600               287.2197
 Red. masses --     14.3355                 3.1266                 7.1739
 Frc consts  --      0.6395                 0.1462                 0.3487
 IR Inten    --      0.4713                 5.2700                19.7285

                     22                     23                     24
                      A                      A                      A
 Frequencies --    369.4832               404.4564               405.1265
 Red. masses --      4.0760                15.7777                15.3087
 Frc consts  --      0.3278                 1.5207                 1.4804
 IR Inten    --      5.7398                56.1212                 1.8569

                     25                     26                     27
                      A                      A                      A
 Frequencies --    416.7772               429.0152               485.5332
 Red. masses --      7.8354                 2.4356                12.2691
 Frc consts  --      0.8019                 0.2641                 1.7041
 IR Inten    --     48.2429                10.3942                 6.8407

                     28                     29                     30
                      A                      A                      A
 Frequencies --    489.7021               508.5559               510.5860
 Red. masses --      2.7564                16.4658                 3.3698
 Frc consts  --      0.3895                 2.5091                 0.5176
 IR Inten    --     26.1247                78.7322                95.6526

                     31                     32                     33
                      A                      A                      A
 Frequencies --    555.2800               647.0596               811.7412
 Red. masses --      3.9387                 1.7111                 1.6956
 Frc consts  --      0.7155                 0.4221                 0.6583
 IR Inten    --    208.7939                 4.5362                 4.8479

                     34                     35                     36
                      A                      A                      A
 Frequencies --    920.3728               932.8861               937.1288
 Red. masses --      1.7902                 1.3398                 1.4691
 Frc consts  --      0.8935                 0.6870                 0.7601
 IR Inten    --     40.9828                37.1151                18.7290

                     37                     38                     39
                      A                      A                      A
 Frequencies --    983.2420              1004.3964              1021.4683
 Red. masses --      2.0112                 2.6514                 1.2457
 Frc consts  --      1.1456                 1.5759                 0.7658
 IR Inten    --      8.2161                58.1057                32.0285

                     40                     41                     42
                      A                      A                      A
 Frequencies --   1037.2328              1045.8225              1054.2008
 Red. masses --      1.8816                14.5529                15.7641
 Frc consts  --      1.1927                 9.3781                10.3220
 IR Inten    --     26.2552                21.3782                42.3464

                     43                     44                     45
                      A                      A                      A
 Frequencies --   1063.4544              1084.9202              1086.0367
 Red. masses --     15.8961                13.4091                 2.5806
 Frc consts  --     10.5920                 9.2992                 1.7933
 IR Inten    --     48.2649               651.1227                87.9989

                     46                     47                     48
                      A                      A                      A
 Frequencies --   1136.6465              1165.1306              1173.3001
 Red. masses --      3.8319                 1.7926                 3.3918
 Frc consts  --      2.9169                 1.4338                 2.7511
 IR Inten    --    199.7831                12.9189               145.1778

                     49                     50                     51
                      A                      A                      A
 Frequencies --   1190.7156              1223.2143              1265.8803
 Red. masses --      2.0237                 1.2386                 1.1247
 Frc consts  --      1.6905                 1.0919                 1.0618
 IR Inten    --     14.3722                21.4001                 5.6330

                     52                     53                     54
                      A                      A                      A
 Frequencies --   1282.1521              1309.3051              1330.8992
 Red. masses --      1.1796                 1.2881                 1.2535
 Frc consts  --      1.1425                 1.3010                 1.3082
 IR Inten    --     30.5571                 0.1138                14.9446

                     55                     56                     57
                      A                      A                      A
 Frequencies --   1354.7999              1384.1887              1429.3998
 Red. masses --      1.1911                 1.2829                 1.3736
 Frc consts  --      1.2881                 1.4482                 1.6536
 IR Inten    --     17.7179                17.3600                 3.2545

                     58                     59                     60
                      A                      A                      A
 Frequencies --   1465.6432              1470.8119              1504.7729
 Red. masses --      1.2413                 1.1208                 1.0977
 Frc consts  --      1.5711                 1.4286                 1.4645
 IR Inten    --     25.0302                 2.8008                 4.1239

                     61                     62                     63
                      A                      A                      A
 Frequencies --   1518.7732              1712.5773              2910.1885
 Red. masses --      1.0828                 4.6695                 1.0696
 Frc consts  --      1.4716                 8.0691                 5.3373
 IR Inten    --      3.0906                 7.4528                71.4732

                     64                     65                     66
                      A                      A                      A
 Frequencies --   2929.9406              2982.0144              3020.2534
 Red. masses --      1.0818                 1.0635                 1.0891
 Frc consts  --      5.4714                 5.5718                 5.8533
 IR Inten    --     94.6991                65.7048                12.2820

                     67                     68                     69
                      A                      A                      A
 Frequencies --   3057.0453              3136.7791              3139.7066
 Red. masses --      1.0979                 1.0552                 1.0605
 Frc consts  --      6.0451                 6.1170                 6.1591
 IR Inten    --     32.5497                 6.0734                18.0065

                     70                     71                     72
                      A                      A                      A
 Frequencies --   3152.9205              3222.4926              3225.8008
 Red. masses --      1.0884                 1.1141                 1.1159
 Frc consts  --      6.3748                 6.8164                 6.8414
 IR Inten    --     15.0475                 2.6936                28.5638

 - Thermochemistry -
 -------------------
 Temperature   298.150 Kelvin.  Pressure   1.00000 Atm.
 Atom     1 has atomic number 30 and mass  63.92915

 Molecular mass:   710.03710 amu.
 Principal axes and moments of inertia in atomic units:
                           1         2         3
     Eigenvalues --  ******************************
           X            0.66594   0.68668  -0.29155
           Y            0.48064  -0.09604   0.87164
           Z           -0.57054   0.72059   0.39401
 This molecule is an asymmetric top.
 Rotational symmetry number  1.
 Warning -- assumption of classical behavior for rotation
           may cause significant error
 Rotational temperatures (Kelvin)      0.00480     0.00054     0.00052
 Rotational constants (GHZ):           0.09999     0.01133     0.01085
 Zero-point vibrational energy     446986.7 (Joules/Mol)
                                  106.83238 (Kcal/Mol)
 Warning -- explicit consideration of  31 degrees of freedom as
           vibrations may cause significant error
 Vibrational temperatures:      9.38    16.50    23.49    28.56    52.02
          (Kelvin)             68.36    85.55   122.21   133.94   142.10
                              173.51   188.90   213.82   263.92   293.59
                              307.13   355.51   379.44   395.91   405.39
                              413.25   531.60   581.92   582.89   599.65
                              617.26   698.57   704.57   731.70   734.62
                              798.92   930.97  1167.91  1324.21  1342.21
                             1348.32  1414.67  1445.10  1469.67  1492.35
                             1504.71  1516.76  1530.07  1560.96  1562.56
                             1635.38  1676.36  1688.12  1713.17  1759.93
                             1821.32  1844.73  1883.80  1914.87  1949.25
                             1991.54  2056.59  2108.73  2116.17  2165.03
                             2185.18  2464.02  4187.11  4215.53  4290.45
                             4345.47  4398.41  4513.13  4517.34  4536.35
                             4636.45  4641.21

 Zero-point correction=                           0.170248 (Hartree/Particle)
 Thermal correction to Energy=                    0.190929
 Thermal correction to Enthalpy=                  0.191873
 Thermal correction to Gibbs Free Energy=         0.108230
 Sum of electronic and zero-point Energies=          -4464.305629
 Sum of electronic and thermal Energies=             -4464.284948
 Sum of electronic and thermal Enthalpies=           -4464.284004
 Sum of electronic and thermal Free Energies=        -4464.367647

                     E (Thermal)             CV                S
                      KCal/Mol        Cal/Mol-Kelvin    Cal/Mol-Kelvin
 Total                  119.810             67.385            176.041
 Electronic               0.000              0.000              0.000
 Translational            0.889              2.981             45.561
 Rotational               0.889              2.981             41.388
 Vibrational            118.032             61.424             89.092
 Vibration     1          0.593              1.987              8.862
 Vibration     2          0.593              1.987              7.739
 Vibration     3          0.593              1.986              7.037
 Vibration     4          0.593              1.986              6.649
 Vibration     5          0.594              1.982              5.459
 Vibration     6          0.595              1.979              4.918
 Vibration     7          0.597              1.974              4.475
 Vibration     8          0.601              1.960              3.773
 Vibration     9          0.602              1.954              3.594
 Vibration    10          0.604              1.950              3.479
 Vibration    11          0.609              1.932              3.091
 Vibration    12          0.612              1.922              2.927
 Vibration    13          0.618              1.904              2.690
 Vibration    14          0.631              1.862              2.293
 Vibration    15          0.640              1.834              2.096
 Vibration    16          0.644              1.820              2.014
 Vibration    17          0.661              1.768              1.751
 Vibration    18          0.670              1.739              1.637
 Vibration    19          0.677              1.719              1.564
 Vibration    20          0.681              1.707              1.523
 Vibration    21          0.684              1.697              1.490
 Vibration    22          0.742              1.535              1.082
 Vibration    23          0.770              1.461              0.946
 Vibration    24          0.770              1.459              0.944
 Vibration    25          0.780              1.434              0.903
 Vibration    26          0.790              1.407              0.862
 Vibration    27          0.842              1.282              0.695
 Vibration    28          0.846              1.273              0.684
 Vibration    29          0.864              1.231              0.637
 Vibration    30          0.866              1.227              0.632
 Vibration    31          0.911              1.128              0.533

 Optimization completed on the basis of negligible forces.
    -- Stationary point found.
 Normal termination of Gaussian 16 at Sun Jun 25 14:51:06 2023.
