 Gaussian 16, Revision B.01,
 Gaussian 16:  ES64L-G16RevB.01 20-Dec-2017

 ----------------------------------------------------------------------
 # opt=(calcall,tight,cartesian) freq b3lyp/gen nosymm scf=(qc,maxcycle
 =1024) pseudo=read
 ----------------------------------------------------------------------

 -----------------------
 paddle_new_opt_freq_sin
 -----------------------
 Symbolic Z-matrix:
 Charge =  0 Multiplicity = 1

 SCF Done:  E(RB3LYP) =  -1136.34207848     a.u. after    8 cycles
 SCF Done:  E(RB3LYP) =  -1136.35678800     a.u. after   12 cycles
 SCF Done:  E(RB3LYP) =  -1136.37673930     a.u. after   15 cycles
 SCF Done:  E(RB3LYP) =  -1136.38355622     a.u. after   14 cycles
 SCF Done:  E(RB3LYP) =  -1136.38968581     a.u. after   11 cycles
 SCF Done:  E(RB3LYP) =  -1136.39763903     a.u. after   15 cycles
 SCF Done:  E(RB3LYP) =  -1136.40336860     a.u. after   15 cycles
 SCF Done:  E(RB3LYP) =  -1136.40644840     a.u. after   11 cycles
 SCF Done:  E(RB3LYP) =  -1136.40704173     a.u. after   13 cycles
 SCF Done:  E(RB3LYP) =  -1136.40732692     a.u. after   13 cycles
 SCF Done:  E(RB3LYP) =  -1136.41215094     a.u. after    8 cycles
 SCF Done:  E(RB3LYP) =  -1136.41249830     a.u. after    9 cycles
 SCF Done:  E(RB3LYP) =  -1136.41264602     a.u. after   11 cycles
 SCF Done:  E(RB3LYP) =  -1136.41272148     a.u. after    9 cycles
 SCF Done:  E(RB3LYP) =  -1136.41275533     a.u. after    9 cycles
 SCF Done:  E(RB3LYP) =  -1136.41277117     a.u. after    7 cycles
 SCF Done:  E(RB3LYP) =  -1136.41277340     a.u. after    7 cycles
 SCF Done:  E(RB3LYP) =  -1136.41277375     a.u. after    2 cycles
 SCF Done:  E(RB3LYP) =  -1136.41277375     a.u. after    2 cycles
 Optimization completed.
    -- Stationary point found.
 Normal termination of Gaussian 16 at Mon May 22 20:18:42 2023.

 ------------------------------------------------------------------
 #N Geom=AllCheck Guess=TCheck SCRF=Check GenChk RB3LYP/ChkBas Freq
 ------------------------------------------------------------------

 Structure from the checkpoint file:  "paddle_new_opt_freq_sin.chk"
 -----------------------
 paddle_new_opt_freq_sin
 -----------------------
 Charge =  0 Multiplicity = 1

                          Input orientation:
 ---------------------------------------------------------------------
 Center     Atomic      Atomic             Coordinates (Angstroms)
 Number     Number       Type             X           Y           Z
 ---------------------------------------------------------------------
      1         30           0       -1.451491   -0.057618    0.039118
      2          8           0       -1.357024    1.539553    1.344161
      3          8           0        0.902122    1.594395    1.253076
      4          8           0       -0.528402    1.191553   -1.458968
      5          8           0        1.718581    1.341383   -1.589726
      6          6           0       -0.218228    2.002472    1.655543
      7          6           0        0.539459    1.628648   -1.965956
      8         30           0        1.525402    0.064265   -0.040841
      9          8           0        0.961377   -1.514683   -1.302839
     10          8           0       -1.296356   -1.644274   -1.272953
     11          8           0        1.905264   -1.188923    1.492930
     12          8           0       -0.350211   -1.223138    1.483387
     13          6           0       -0.141905   -2.013489   -1.645829
     14          6           0        0.775416   -1.570318    1.931541
     15          1           0       -0.212410    2.855121    2.355117
     16          1           0        0.452259    2.325134   -2.814762
     17          1           0       -0.104037   -2.864249   -2.346700
     18          1           0        0.791031   -2.269224    2.782692
     19          6           0       -4.290846    0.719773    0.857192
     20          6           0       -5.682192    0.691517    0.922528
     21          6           0       -6.372494   -0.266583    0.178008
     22          6           0       -5.646460   -1.164155   -0.606856
     23          6           0       -4.256318   -1.073614   -0.620675
     24          7           0       -3.591488   -0.147797    0.098858
     25          1           0       -7.457187   -0.312940    0.208912
     26          1           0       -3.699950    1.440916    1.412882
     27          1           0       -6.206250    1.408245    1.545704
     28          1           0       -6.142067   -1.924463   -1.200985
     29          1           0       -3.638620   -1.743207   -1.210660
 ---------------------------------------------------------------------

 SCF Done:  E(RB3LYP) =  -1136.41277375     a.u. after    1 cycles

 Alpha  occ. eigenvalues --  -19.15137 -19.15135 -19.14917 -19.14916 -19.14773
 Alpha  occ. eigenvalues --  -19.14769 -19.14591 -19.14587 -14.39912 -10.31406
 Alpha  occ. eigenvalues --  -10.31406 -10.31134 -10.31131 -10.26392 -10.26390
 Alpha  occ. eigenvalues --  -10.24805 -10.23617 -10.23617  -1.08191  -1.07756
 Alpha  occ. eigenvalues --   -1.07338  -1.07165  -0.99420  -0.99192  -0.98964
 Alpha  occ. eigenvalues --   -0.98823  -0.98801  -0.84674  -0.80520  -0.67568
 Alpha  occ. eigenvalues --   -0.67014  -0.64635  -0.63597  -0.62817  -0.62774
 Alpha  occ. eigenvalues --   -0.62703  -0.62504  -0.62057  -0.62011  -0.61298
 Alpha  occ. eigenvalues --   -0.61226  -0.60826  -0.59331  -0.58928  -0.57162
 Alpha  occ. eigenvalues --   -0.56291  -0.52332  -0.50835  -0.50606  -0.49069
 Alpha  occ. eigenvalues --   -0.48937  -0.48892  -0.48100  -0.48053  -0.46797
 Alpha  occ. eigenvalues --   -0.46259  -0.45356  -0.44368  -0.44365  -0.44222
 Alpha  occ. eigenvalues --   -0.43041  -0.42810  -0.41051  -0.40346  -0.36448
 Alpha  occ. eigenvalues --   -0.34061  -0.33471  -0.31467  -0.31364  -0.31227
 Alpha  occ. eigenvalues --   -0.30399  -0.30253  -0.30003  -0.29799  -0.29349
 Alpha  occ. eigenvalues --   -0.29325  -0.29321  -0.29152  -0.27372
 Alpha virt. eigenvalues --   -0.07922  -0.05593  -0.01385  -0.00789  -0.00391
 Alpha virt. eigenvalues --    0.00034   0.00246   0.00792   0.01197   0.01508
 Alpha virt. eigenvalues --    0.02296   0.02400   0.02560   0.02857   0.03959

 Mulliken charges:
               1
     1  Zn   0.589261
     2  O   -0.481902
     3  O   -0.475834
     4  O   -0.418370
     5  O   -0.441092
     6  C    0.463392
     7  C    0.419923
     8  Zn   0.841858
     9  O   -0.475691
    10  O   -0.482078
    11  O   -0.441037
    12  O   -0.418467
    13  C    0.463579
    14  C    0.419893
    15  H    0.103046
    16  H    0.111688
    17  H    0.103059
    18  H    0.111682
    19  C   -0.307675
    20  C    0.071488
    21  C   -0.553902
    22  C    0.071738
    23  C   -0.307743
    24  N    0.199377
    25  H    0.149045
    26  H    0.194701
    27  H    0.147670
    28  H    0.147667
    29  H    0.194724
 Sum of Mulliken charges =  -0.00000

 Dipole moment (field-independent basis, Debye):
    X=             -7.8626    Y=             -0.3309    Z=              0.2179  Tot=              7.8725
 Quadrupole moment (field-independent basis, Debye-Ang):
   XX=            -85.7137   YY=           -120.8938   ZZ=           -122.3643
   XY=              1.5876   XZ=             -1.1916   YZ=              3.6477

  Exact polarizability: 206.524   2.914 147.883  -2.489  15.831 141.613
 Approx polarizability: 311.201   5.070 210.835  -4.465  31.723 198.303

                      1                      2                      3
                      A                      A                      A
 Frequencies --     23.7236                38.9234                64.4341
 Red. masses --      8.2466                 3.9019                 8.6954
 Frc consts  --      0.0027                 0.0035                 0.0213
 IR Inten    --      0.5915                 0.0001                 0.4568

                      4                      5                      6
                      A                      A                      A
 Frequencies --     72.9284                86.6997                99.1365
 Red. masses --     13.0966                10.6304                 7.0463
 Frc consts  --      0.0410                 0.0471                 0.0408
 IR Inten    --      0.0131                 5.5213                 0.3991

                      7                      8                      9
                      A                      A                      A
 Frequencies --    108.5453               109.4616               128.3735
 Red. masses --     14.8043                 6.2401                 4.8124
 Frc consts  --      0.1028                 0.0441                 0.0467
 IR Inten    --      0.0040                 0.7092                 0.0093

                     10                     11                     12
                      A                      A                      A
 Frequencies --    129.2312               129.2904               135.4975
 Red. masses --      5.5248                14.5279                 8.6607
 Frc consts  --      0.0544                 0.1431                 0.0937
 IR Inten    --      2.0821                 1.7890                 1.5303

                     13                     14                     15
                      A                      A                      A
 Frequencies --    146.9396               162.4313               163.3665
 Red. masses --     14.7218                10.8049                15.6749
 Frc consts  --      0.1873                 0.1680                 0.2465
 IR Inten    --     71.1726                 0.0021                 0.0574

                     16                     17                     18
                      A                      A                      A
 Frequencies --    186.5242               187.7849               199.1166
 Red. masses --     10.0656                 6.4437                11.0411
 Frc consts  --      0.2063                 0.1339                 0.2579
 IR Inten    --      0.0009                 0.3316                 1.7072

                     19                     20                     21
                      A                      A                      A
 Frequencies --    229.4037               243.3324               253.5633
 Red. masses --     15.5145                10.9392                 2.6576
 Frc consts  --      0.4810                 0.3816                 0.1007
 IR Inten    --     35.3631                39.8165                 0.0003

                     22                     23                     24
                      A                      A                      A
 Frequencies --    257.5429               306.8569               309.9680
 Red. masses --      9.9634                 3.0261                 9.6507
 Frc consts  --      0.3894                 0.1679                 0.5463
 IR Inten    --      0.0492                88.7014                17.9646

                     25                     26                     27
                      A                      A                      A
 Frequencies --    314.3446               325.7261               341.9148
 Red. masses --      9.0448                 3.3198                 3.0364
 Frc consts  --      0.5266                 0.2075                 0.2091
 IR Inten    --      0.4273                94.5446                 0.0030

                     28                     29                     30
                      A                      A                      A
 Frequencies --    343.1053               371.7036               405.1206
 Red. masses --     10.5212                11.9068                 2.7194
 Frc consts  --      0.7297                 0.9693                 0.2630
 IR Inten    --      5.7260               102.7312                 0.0000

                     31                     32                     33
                      A                      A                      A
 Frequencies --    426.0094               431.7353               647.8105
 Red. masses --     11.2754                 4.1052                 6.9558
 Frc consts  --      1.2056                 0.4508                 1.7199
 IR Inten    --     57.2515                28.9271                18.0781

                     34                     35                     36
                      A                      A                      A
 Frequencies --    663.4726               718.5303               763.7630
 Red. masses --      6.3594                 1.8097                11.5930
 Frc consts  --      1.6493                 0.5505                 3.9844
 IR Inten    --      0.4124                52.0082                48.5233

                     37                     38                     39
                      A                      A                      A
 Frequencies --    764.8136               771.0009               772.5301
 Red. masses --     11.6122                11.3310                 1.6832
 Frc consts  --      4.0020                 3.9685                 0.5919
 IR Inten    --      5.4360                55.3859                19.7003

                     40                     41                     42
                      A                      A                      A
 Frequencies --    774.5646               902.9042               993.2205
 Red. masses --     11.7322                 1.2429                 1.3138
 Frc consts  --      4.1471                 0.5970                 0.7636
 IR Inten    --      0.8157                 0.0000                 0.5817

                     43                     44                     45
                      A                      A                      A
 Frequencies --   1027.1692              1027.9276              1036.0519
 Red. masses --      1.3114                 1.4123                 6.3725
 Frc consts  --      0.8152                 0.8792                 4.0301
 IR Inten    --      0.0001                 0.0000                 4.3976

                     46                     47                     48
                      A                      A                      A
 Frequencies --   1051.5775              1054.7158              1056.2675
 Red. masses --      6.2001                 1.6703                 1.6662
 Frc consts  --      4.0395                 1.0948                 1.0953
 IR Inten    --     30.0624                 0.0000                 0.1213

                     49                     50                     51
                      A                      A                      A
 Frequencies --   1059.6994              1060.8009              1095.3727
 Red. masses --      1.6807                 1.6758                 1.7473
 Frc consts  --      1.1120                 1.1111                 1.2352
 IR Inten    --      0.0055                 0.0000                 0.3294

                     52                     53                     54
                      A                      A                      A
 Frequencies --   1096.8962              1180.3501              1253.5783
 Red. masses --      1.6725                 1.1130                 1.2806
 Frc consts  --      1.1856                 0.9136                 1.1857
 IR Inten    --     28.6779                 4.0682                55.8061

                     55                     56                     57
                      A                      A                      A
 Frequencies --   1309.8906              1379.2369              1379.4063
 Red. masses --      7.6784                 1.4489                 1.4251
 Frc consts  --      7.7623                 1.6239                 1.5976
 IR Inten    --      0.7545                47.7763                38.4603

                     58                     59                     60
                      A                      A                      A
 Frequencies --   1390.8528              1391.8715              1396.8077
 Red. masses --      1.7784                 1.9313                 1.2319
 Frc consts  --      2.0270                 2.2045                 1.4162
 IR Inten    --    113.8648                43.9704                10.1988

                     61                     62                     63
                      A                      A                      A
 Frequencies --   1398.1722              1399.2540              1406.9039
 Red. masses --      3.2354                 2.5821                 2.2155
 Frc consts  --      3.7265                 2.9786                 2.5838
 IR Inten    --    185.7306                30.3807               145.4903

                     64                     65                     66
                      A                      A                      A
 Frequencies --   1408.2253              1488.3195              1523.9656
 Red. masses --      2.5645                 2.1470                 1.9406
 Frc consts  --      2.9964                 2.8020                 2.6554
 IR Inten    --      0.3465                37.2370                14.2558

                     67                     68                     69
                      A                      A                      A
 Frequencies --   1604.8326              1621.2231              1622.5349
 Red. masses --      9.2998                 5.7165                 9.6969
 Frc consts  --     14.1118                 8.8526                15.0409
 IR Inten    --      2.9958                 3.5293                23.1436

                     70                     71                     72
                      A                      A                      A
 Frequencies --   1644.7961              1657.6810              1709.0857
 Red. masses --      8.9456                 4.8612                10.1310
 Frc consts  --     14.2588                 7.8704                17.4353
 IR Inten    --      2.8547                46.1527              2258.2751

                     73                     74                     75
                      A                      A                      A
 Frequencies --   3026.8143              3027.3623              3046.9180
 Red. masses --      1.0852                 1.0853                 1.0864
 Frc consts  --      5.8575                 5.8605                 5.9421
 IR Inten    --    207.0393                 0.9993               169.7060

                     76                     77                     78
                      A                      A                      A
 Frequencies --   3047.7398              3198.5717              3213.4851
 Red. masses --      1.0866                 1.0883                 1.0893
 Frc consts  --      5.9467                 6.5603                 6.6273
 IR Inten    --      3.2209                 6.6548                 5.0996

                     79                     80                     81
                      A                      A                      A
 Frequencies --   3217.4705              3225.0387              3228.7095
 Red. masses --      1.0940                 1.0957                 1.0997
 Frc consts  --      6.6723                 6.7142                 6.7544
 IR Inten    --      4.2721                 0.7093                25.2425

 - Thermochemistry -
 -------------------
 Temperature   298.150 Kelvin.  Pressure   1.00000 Atm.
 Atom     1 has atomic number 30 and mass  63.92915

 Molecular mass:   386.89111 amu.
 Principal axes and moments of inertia in atomic units:
                           1         2         3
     Eigenvalues --  3440.133819460.591959879.86905
           X            0.99874  -0.01470   0.04798
           Y            0.04185   0.77166  -0.63466
           Z           -0.02769   0.63587   0.77130
 This molecule is an asymmetric top.
 Rotational symmetry number  1.
 Warning -- assumption of classical behavior for rotation
           may cause significant error
 Rotational temperatures (Kelvin)      0.02518     0.00916     0.00877
 Rotational constants (GHZ):           0.52461     0.19076     0.18267
 Zero-point vibrational energy     493285.7 (Joules/Mol)
                                  117.89810 (Kcal/Mol)
 Warning -- explicit consideration of  32 degrees of freedom as
           vibrations may cause significant error
 Vibrational temperatures:     34.13    56.00    92.71   104.93   124.74
          (Kelvin)            142.64   156.17   157.49   184.70   185.93
                              186.02   194.95   211.41   233.70   235.05
                              268.37   270.18   286.48   330.06   350.10
                              364.82   370.55   441.50   445.97   452.27
                              468.65   491.94   493.65   534.80   582.88
                              612.93   621.17   932.05   954.59  1033.80
                             1098.88  1100.40  1109.30  1111.50  1114.43
                             1299.08  1429.02  1477.87  1478.96  1490.65
                             1512.99  1517.50  1519.73  1524.67  1526.26
                             1576.00  1578.19  1698.26  1803.62  1884.64
                             1984.41  1984.66  2001.13  2002.59  2009.69
                             2011.66  2013.21  2024.22  2026.12  2141.36
                             2192.65  2309.00  2332.58  2334.47  2366.49
                             2385.03  2458.99  4354.91  4355.70  4383.84
                             4385.02  4602.03  4623.49  4629.22  4640.11
                             4645.39

 Zero-point correction=                           0.187883 (Hartree/Particle)
 Thermal correction to Energy=                    0.210175
 Thermal correction to Enthalpy=                  0.211119
 Thermal correction to Gibbs Free Energy=         0.135171
 Sum of electronic and zero-point Energies=          -1136.224891
 Sum of electronic and thermal Energies=             -1136.202599
 Sum of electronic and thermal Enthalpies=           -1136.201655
 Sum of electronic and thermal Free Energies=        -1136.277603

                     E (Thermal)             CV                S
                      KCal/Mol        Cal/Mol-Kelvin    Cal/Mol-Kelvin
 Total                  131.887             75.378            159.847
 Electronic               0.000              0.000              0.000
 Translational            0.889              2.981             43.751
 Rotational               0.889              2.981             34.130
 Vibrational            130.109             69.417             81.966
 Vibration     1          0.593              1.985              6.295
 Vibration     2          0.594              1.981              5.313
 Vibration     3          0.597              1.971              4.317
 Vibration     4          0.599              1.967              4.073
 Vibration     5          0.601              1.958              3.733
 Vibration     6          0.604              1.950              3.471
 Vibration     7          0.606              1.942              3.295
 Vibration     8          0.606              1.942              3.278
 Vibration     9          0.611              1.925              2.970
 Vibration    10          0.612              1.924              2.957
 Vibration    11          0.612              1.924              2.957
 Vibration    12          0.613              1.918              2.866
 Vibration    13          0.617              1.906              2.711
 Vibration    14          0.623              1.889              2.521
 Vibration    15          0.623              1.887              2.510
 Vibration    16          0.632              1.858              2.262
 Vibration    17          0.632              1.857              2.250
 Vibration    18          0.637              1.841              2.141
 Vibration    19          0.652              1.796              1.884
 Vibration    20          0.659              1.774              1.778
 Vibration    21          0.665              1.757              1.706
 Vibration    22          0.667              1.750              1.678
 Vibration    23          0.697              1.661              1.379
 Vibration    24          0.699              1.655              1.363
 Vibration    25          0.702              1.646              1.339
 Vibration    26          0.710              1.624              1.281
 Vibration    27          0.721              1.592              1.203
 Vibration    28          0.722              1.589              1.198
 Vibration    29          0.743              1.530              1.073
 Vibration    30          0.770              1.459              0.944
 Vibration    31          0.788              1.414              0.872
 Vibration    32          0.793              1.401              0.853

 Optimization completed.
    -- Stationary point found.
 Normal termination of Gaussian 16 at Mon May 22 20:22:33 2023.
