 Gaussian 16, Revision B.01,
 Gaussian 16:  ES64L-G16RevB.01 20-Dec-2017

 ----------------------------------------------------------------------
 # opt=(calcall,tight,cartesian) freq b3lyp/gen nosymm scf=(qc,maxcycle
 =1024) pseudo=read
 ----------------------------------------------------------------------

 ----------------
 CO2_opt_freq_sin
 ----------------
 Symbolic Z-matrix:
 Charge =  0 Multiplicity = 1

 SCF Done:  E(RB3LYP) =  -188.561656571     a.u. after    7 cycles
 SCF Done:  E(RB3LYP) =  -188.585066224     a.u. after    9 cycles
 SCF Done:  E(RB3LYP) =  -188.587437378     a.u. after    5 cycles
 Optimization completed.
    -- Stationary point found.
 Normal termination of Gaussian 16 at Thu May 11 00:38:44 2023.

 ------------------------------------------------------------------
 #N Geom=AllCheck Guess=TCheck SCRF=Check GenChk RB3LYP/ChkBas Freq
 ------------------------------------------------------------------

 Structure from the checkpoint file:  "CO2_opt_freq_sin.chk"
 ----------------
 CO2_opt_freq_sin
 ----------------
 Charge =  0 Multiplicity = 1

                          Input orientation:
 ---------------------------------------------------------------------
 Center     Atomic      Atomic             Coordinates (Angstroms)
 Number     Number       Type             X           Y           Z
 ---------------------------------------------------------------------
      1          6           0       -1.260404    1.587396    0.000000
      2          8           0       -2.430190    1.587396   -0.000000
      3          8           0       -0.090619    1.587396   -0.000000
 ---------------------------------------------------------------------

 SCF Done:  E(RB3LYP) =  -188.587437378     a.u. after    1 cycles

 Alpha  occ. eigenvalues --  -19.24929 -19.24924 -10.39704  -1.17583  -1.13503
 Alpha  occ. eigenvalues --   -0.57603  -0.53121  -0.52656  -0.52656  -0.38491
 Alpha  occ. eigenvalues --   -0.38491
 Alpha virt. eigenvalues --   -0.02061   0.01231   0.01231   0.05284   0.05435
 Alpha virt. eigenvalues --    0.05435   0.13494   0.17931   0.18903   0.18903
 Alpha virt. eigenvalues --    0.24144   0.25997   0.25997   0.29293   0.33574

 Mulliken charges:
               1
     1  C    0.665163
     2  O   -0.332581
     3  O   -0.332581
 Sum of Mulliken charges =   0.00000

 Dipole moment (field-independent basis, Debye):
    X=              0.0000    Y=              0.0000    Z=              0.0000  Tot=              0.0000
 Quadrupole moment (field-independent basis, Debye-Ang):
   XX=            -19.7387   YY=            -14.9046   ZZ=            -14.9046
   XY=              0.0000   XZ=             -0.0000   YZ=              0.0000

  Exact polarizability:  26.370  -0.000   9.336   0.000  -0.000   9.336
 Approx polarizability:  49.347  -0.000  11.522  -0.000  -0.000  11.522

                      1                      2                      3
                      A                      A                      A
 Frequencies --    655.0242               655.0242              1362.7446
 Red. masses --     12.8774                12.8774                15.9949
 Frc consts  --      3.2553                 3.2553                17.5009
 IR Inten    --     32.6966                32.6966                 0.0000

                      4
                      A
 Frequencies --   2412.2362
 Red. masses --     12.8774
 Frc consts  --     44.1486
 IR Inten    --    660.4952

 - Thermochemistry -
 -------------------
 Temperature   298.150 Kelvin.  Pressure   1.00000 Atm.
 Atom     1 has atomic number  6 and mass  12.00000

 Molecular mass:    43.98983 amu.
 Principal axes and moments of inertia in atomic units:
                           1         2         3
     Eigenvalues --     0.00000 156.32278 156.32278
           X            1.00000   0.00000  -0.00000
           Y            0.00000   0.00000   1.00000
           Z           -0.00000   1.00000  -0.00000
 This molecule is a prolate symmetric top.
 Rotational symmetry number  2.
 Rotational temperature (Kelvin)      0.55407
 Rotational constant (GHZ):          11.544966
 Zero-point vibrational energy      30415.2 (Joules/Mol)
                                    7.26941 (Kcal/Mol)
 Vibrational temperatures:    942.43   942.43  1960.69  3470.67
          (Kelvin)

 Zero-point correction=                           0.011585 (Hartree/Particle)
 Thermal correction to Energy=                    0.014218
 Thermal correction to Enthalpy=                  0.015162
 Thermal correction to Gibbs Free Energy=        -0.009129
 Sum of electronic and zero-point Energies=           -188.575853
 Sum of electronic and thermal Energies=              -188.573219
 Sum of electronic and thermal Enthalpies=            -188.572275
 Sum of electronic and thermal Free Energies=         -188.596566

                     E (Thermal)             CV                S
                      KCal/Mol        Cal/Mol-Kelvin    Cal/Mol-Kelvin
 Total                    8.922              6.926             51.125
 Electronic               0.000              0.000              0.000
 Translational            0.889              2.981             37.270
 Rotational               0.592              1.987             13.105
 Vibrational              7.441              1.958              0.749

 Optimization completed.
    -- Stationary point found.
 Normal termination of Gaussian 16 at Thu May 11 00:38:48 2023.
