 Gaussian 16, Revision B.01,
 Gaussian 16:  ES64L-G16RevB.01 20-Dec-2017

 ----------------------------------------------------------------------
 # irc=(calcfc,maxpoints=120,recalc=3) b3lyp/gen nosymm scf=(qc,maxcycl
 e=1024) pseudo=read
 ----------------------------------------------------------------------

 -----
 IRC_3
 -----
 Symbolic Z-matrix:
 Charge =  0 Multiplicity = 1

 SCF Done:  E(RB3LYP) =  -4464.46166012     a.u. after   10 cycles
 SCF Done:  E(RB3LYP) =  -4464.46194599     a.u. after   11 cycles
 SCF Done:  E(RB3LYP) =  -4464.46280161     a.u. after   11 cycles
 SCF Done:  E(RB3LYP) =  -4464.46413414     a.u. after   11 cycles
 SCF Done:  E(RB3LYP) =  -4464.46569996     a.u. after   11 cycles
 SCF Done:  E(RB3LYP) =  -4464.46711680     a.u. after   11 cycles
 SCF Done:  E(RB3LYP) =  -4464.46712691     a.u. after    2 cycles
 SCF Done:  E(RB3LYP) =  -4464.46806851     a.u. after   11 cycles
 SCF Done:  E(RB3LYP) =  -4464.46809222     a.u. after    2 cycles
 SCF Done:  E(RB3LYP) =  -4464.46874882     a.u. after    9 cycles
 SCF Done:  E(RB3LYP) =  -4464.47322368     a.u. after    7 cycles
 SCF Done:  E(RB3LYP) =  -4464.47377995     a.u. after    7 cycles
 SCF Done:  E(RB3LYP) =  -4464.47425672     a.u. after    7 cycles
 SCF Done:  E(RB3LYP) =  -4464.47465681     a.u. after    6 cycles
 SCF Done:  E(RB3LYP) =  -4464.47498331     a.u. after    5 cycles
 SCF Done:  E(RB3LYP) =  -4464.47523877     a.u. after    5 cycles
 SCF Done:  E(RB3LYP) =  -4464.47542789     a.u. after    5 cycles
 SCF Done:  E(RB3LYP) =  -4464.47555841     a.u. after    5 cycles
 SCF Done:  E(RB3LYP) =  -4464.47564215     a.u. after    7 cycles
 SCF Done:  E(RB3LYP) =  -4464.47569405     a.u. after    8 cycles

                          Input orientation:
 ---------------------------------------------------------------------
 Center     Atomic      Atomic             Coordinates (Angstroms)
 Number     Number       Type             X           Y           Z
 ---------------------------------------------------------------------
      1         30           0       -4.694489   -2.528905    2.326317
      2          8           0       -4.600022   -0.931734    3.631360
      3          8           0       -2.342767   -0.855779    3.539989
      4          8           0       -3.771400   -1.279734    0.828231
      5          8           0       -1.521972   -1.104872    0.671212
      6          6           0       -3.461226   -0.468815    3.942742
      7          6           0       -2.703539   -0.842639    0.321243
      8         30           0       -1.143278   -2.432543    2.221860
      9          8           0       -2.282442   -3.993213    0.968558
     10          8           0       -4.539354   -4.115561    1.014246
     11          8           0       -1.331950   -3.694760    3.802765
     12          8           0       -3.593209   -3.694425    3.770586
     13          6           0       -3.384903   -4.484776    0.641370
     14          6           0       -2.467582   -4.041605    4.218740
     15          1           0       -3.455408    0.383834    4.642316
     16          1           0       -2.790739   -0.146153   -0.527563
     17          1           0       -3.347035   -5.335536   -0.059501
     18          1           0       -2.451967   -4.740511    5.069891
     19          6           0       -7.533844   -1.751514    3.144391
     20          6           0       -8.925190   -1.779770    3.209727
     21          6           0       -9.615492   -2.737870    2.465207
     22          6           0       -8.889458   -3.635442    1.680343
     23          6           0       -7.499316   -3.544901    1.666524
     24          7           0       -6.834486   -2.619084    2.386057
     25          1           0      -10.700185   -2.784227    2.496111
     26          1           0       -6.942948   -1.030371    3.700081
     27          1           0       -9.449248   -1.063042    3.832903
     28          1           0       -9.385065   -4.395750    1.086214
     29          1           0       -6.881618   -4.214494    1.076539
     30          6           0        0.099472    1.160350    6.844107
     31          6           0        0.994047    1.088739    5.853142
     32          6           0        0.646987    1.045861    4.392668
     33          8           0        1.417775    0.039895    3.761254
     34          6           0        1.247970    0.025167    2.343028
     35          6           0        1.671311   -1.346004    1.800189
     36          6           0        1.710538   -1.358755    0.264037
     37          8           0        0.816895   -2.375442    2.134757
     38          1           0        0.405767    1.222211    7.885261
     39          1           0       -0.970780    1.143147    6.646214
     40          1           0        2.061608    1.075544    6.077851
     41          1           0        0.877342    2.031866    3.940359
     42          1           0       -0.427159    0.851876    4.251177
     43          1           0        1.853571    0.831824    1.896865
     44          1           0        0.193412    0.196431    2.084547
     45          1           0        2.690628   -1.546320    2.182578
     46          1           0        1.993969   -2.345631   -0.092594
     47          1           0        0.770129   -1.031577   -0.175907
     48          7           0        9.323654    7.878593   -9.418327
     49          6           0        8.775192    8.666291  -10.627481
     50          6           0        7.270430    8.622886  -10.872553
     51          1           0        9.313044    8.270702  -11.501210
     52          1           0        9.078220    9.701899  -10.450984
     53          1           0        7.103577    9.157016  -11.813418
     54          1           0        6.883739    7.613699  -11.013723
     55          1           0        6.683343    9.128889  -10.100249
     56          6           0        8.391804    8.049291   -8.231660
     57          6           0        8.839774    7.404936   -6.922216
     58          1           0        7.428152    7.640829   -8.531655
     59          1           0        8.266006    9.128533   -8.103645
     60          1           0        8.060745    7.595195   -6.177194
     61          1           0        8.950718    6.321056   -7.006041
     62          1           0        9.770233    7.824714   -6.532814
     63          6           0       10.688373    8.483285   -9.054888
     64          6           0       11.654868    8.714255  -10.214541
     65          1           0       11.128756    7.801136   -8.326361
     66          1           0       10.466507    9.425674   -8.544057
     67          1           0       12.641714    8.907473   -9.780939
     68          1           0       11.730791    7.864246  -10.899138
     69          1           0       11.379340    9.583125  -10.815579
     70          6           0        9.559677    6.396005   -9.755568
     71          6           0        8.331274    5.543955  -10.042216
     72          1           0       10.119726    5.997221   -8.907378
     73          1           0       10.186439    6.391655  -10.656259
     74          1           0        8.684305    4.510323  -10.113993
     75          1           0        7.563082    5.575454   -9.262716
     76          1           0        7.896991    5.784870  -11.013421
     77         35           0        3.125091   -0.135431   -0.595756
 ---------------------------------------------------------------------

 Alpha  occ. eigenvalues -- -482.57833 -61.66329 -56.23228 -56.22948 -56.22937
 Alpha  occ. eigenvalues --  -19.06425 -19.05933 -19.05887 -19.05329 -19.05258
 Alpha  occ. eigenvalues --  -19.04639 -19.04627 -19.04536 -19.04523 -18.98438
 Alpha  occ. eigenvalues --  -14.57770 -14.34330 -10.36567 -10.36356 -10.36282
 Alpha  occ. eigenvalues --  -10.35924 -10.30466 -10.30119 -10.30043 -10.29852
 Alpha  occ. eigenvalues --  -10.22083 -10.21985 -10.21900 -10.21290 -10.21186
 Alpha  occ. eigenvalues --  -10.21183 -10.20117 -10.18804 -10.18802 -10.15580
 Alpha  occ. eigenvalues --  -10.14111 -10.13347 -10.13036 -10.12884 -10.12157
 Alpha  occ. eigenvalues --   -8.43390  -6.44833  -6.43845  -6.43832  -2.56820
 Alpha  occ. eigenvalues --   -2.56547  -2.56537  -2.55750  -2.55750  -1.12766
 Alpha  occ. eigenvalues --   -0.98408  -0.97990  -0.97832  -0.97290  -0.94934
 Alpha  occ. eigenvalues --   -0.93986  -0.91060  -0.90855  -0.90669  -0.89784
 Alpha  occ. eigenvalues --   -0.89529  -0.89475  -0.88951  -0.85598  -0.85187
 Alpha  occ. eigenvalues --   -0.79813  -0.78255  -0.77603  -0.76615  -0.75475
 Alpha  occ. eigenvalues --   -0.72125  -0.69921  -0.69620  -0.64255  -0.64134
 Alpha  occ. eigenvalues --   -0.64109  -0.62439  -0.62308  -0.62065  -0.59904
 Alpha  occ. eigenvalues --   -0.59786  -0.58443  -0.56107  -0.55922  -0.55714
 Alpha  occ. eigenvalues --   -0.54769  -0.53731  -0.53388  -0.52821  -0.52808
 Alpha  occ. eigenvalues --   -0.52396  -0.52303  -0.52061  -0.51662  -0.51506
 Alpha  occ. eigenvalues --   -0.51168  -0.51041  -0.50979  -0.50581  -0.50341
 Alpha  occ. eigenvalues --   -0.50216  -0.49975  -0.49907  -0.49629  -0.49130
 Alpha  occ. eigenvalues --   -0.48909  -0.48874  -0.48811  -0.48118  -0.47962
 Alpha  occ. eigenvalues --   -0.47277  -0.47262  -0.47054  -0.46791  -0.46584
 Alpha  occ. eigenvalues --   -0.45823  -0.42201  -0.41913  -0.41790  -0.40947
 Alpha  occ. eigenvalues --   -0.40140  -0.39601  -0.39463  -0.39106  -0.38798
 Alpha  occ. eigenvalues --   -0.38648  -0.38016  -0.37544  -0.37523  -0.36708
 Alpha  occ. eigenvalues --   -0.35241  -0.35185  -0.35033  -0.34780  -0.33687
 Alpha  occ. eigenvalues --   -0.33548  -0.33320  -0.31719  -0.30774  -0.30357
 Alpha  occ. eigenvalues --   -0.30028  -0.29033  -0.28503  -0.27040  -0.26084
 Alpha  occ. eigenvalues --   -0.25465  -0.24483  -0.24018  -0.22104  -0.21724
 Alpha  occ. eigenvalues --   -0.21328  -0.20837  -0.20598  -0.20389  -0.20226
 Alpha  occ. eigenvalues --   -0.20018  -0.19852  -0.19573  -0.19490  -0.19342
 Alpha  occ. eigenvalues --   -0.18979  -0.17668  -0.16990  -0.13741  -0.13119
 Alpha virt. eigenvalues --   -0.10180  -0.08492  -0.08392  -0.08220  -0.06236
 Alpha virt. eigenvalues --   -0.06124  -0.05083  -0.04799  -0.04430  -0.04246
 Alpha virt. eigenvalues --   -0.02928  -0.02571  -0.02356  -0.01715  -0.01153

 Mulliken charges:
               1
     1  Zn   0.760365
     2  O   -0.509386
     3  O   -0.470245
     4  O   -0.449478
     5  O   -0.502102
     6  C    0.417911
     7  C    0.468661
     8  Zn   0.485727
     9  O   -0.449060
    10  O   -0.521144
    11  O   -0.416138
    12  O   -0.468540
    13  C    0.424822
    14  C    0.424576
    15  H    0.057693
    16  H    0.064488
    17  H    0.065316
    18  H    0.068214
    19  C   -0.300345
    20  C    0.098544
    21  C   -0.568686
    22  C    0.061817
    23  C   -0.303648
    24  N    0.208418
    25  H    0.135103
    26  H    0.200223
    27  H    0.136498
    28  H    0.136411
    29  H    0.200414
    30  C   -0.319595
    31  C    0.135752
    32  C   -0.226584
    33  O   -0.305565
    34  C   -0.265579
    35  C    0.421093
    36  C   -0.373851
    37  O   -0.475377
    38  H    0.116952
    39  H    0.129372
    40  H    0.123729
    41  H    0.105391
    42  H    0.148322
    43  H    0.106902
    44  H    0.132161
    45  H    0.098004
    46  H    0.174777
    47  H    0.202990
    48  N   -0.711756
    49  C    0.078159
    50  C   -0.609568
    51  H    0.192191
    52  H    0.188884
    53  H    0.186898
    54  H    0.173329
    55  H    0.179834
    56  C    0.047521
    57  C   -0.559744
    58  H    0.194872
    59  H    0.192218
    60  H    0.195909
    61  H    0.177598
    62  H    0.174573
    63  C    0.119730
    64  C   -0.535313
    65  H    0.187704
    66  H    0.194637
    67  H    0.188901
    68  H    0.171418
    69  H    0.175681
    70  C    0.033288
    71  C   -0.542471
    72  H    0.186710
    73  H    0.183271
    74  H    0.190970
    75  H    0.176521
    76  H    0.168033
    77  Br  -0.385319
 Sum of Mulliken charges =   0.00000

 Dipole moment (field-independent basis, Debye):
    X=             38.4437    Y=             45.6724    Z=            -54.3938  Tot=             80.7625
 Quadrupole moment (field-independent basis, Debye-Ang):
   XX=            195.0429   YY=             17.4751   ZZ=            143.5511
   XY=            351.1027   XZ=           -423.6649   YZ=           -328.8086

  Exact polarizability:   0.000   0.000   0.000   0.000   0.000   0.000
 Approx polarizability: 620.724  25.546 489.623 -38.121  16.963 501.899

 Normal termination of Gaussian 16 at Thu Jun 15 01:16:51 2023.
