 Gaussian 16, Revision C.01,
 Gaussian 16:  ES64L-G16RevC.01  3-Jul-2019

 ----------------------------------------------------------------------
 # opt=(calcall,tight,cartesian) freq b3lyp/gen nosymm scf=(qc,maxcycle
 =1024) pseudo=read
 ----------------------------------------------------------------------

 -----------------------------------------------
 paddle_new_AGE_TEABr_ro_CO2_opt_freq_reposition
 -----------------------------------------------
 Symbolic Z-matrix:
 Charge =  0 Multiplicity = 1

 SCF Done:  E(RB3LYP) =  -4653.06261095     a.u. after    9 cycles
 SCF Done:  E(RB3LYP) =  -4653.06571628     a.u. after   11 cycles
 SCF Done:  E(RB3LYP) =  -4653.06876878     a.u. after   11 cycles
 SCF Done:  E(RB3LYP) =  -4653.07045069     a.u. after   11 cycles
 SCF Done:  E(RB3LYP) =  -4653.07139560     a.u. after   13 cycles
 SCF Done:  E(RB3LYP) =  -4653.07155327     a.u. after    9 cycles
 SCF Done:  E(RB3LYP) =  -4653.07158244     a.u. after    9 cycles
 SCF Done:  E(RB3LYP) =  -4653.07159117     a.u. after    7 cycles
 SCF Done:  E(RB3LYP) =  -4653.07159296     a.u. after    9 cycles
 SCF Done:  E(RB3LYP) =  -4653.07159395     a.u. after    3 cycles
 SCF Done:  E(RB3LYP) =  -4653.07159402     a.u. after    3 cycles
 SCF Done:  E(RB3LYP) =  -4653.07159403     a.u. after    2 cycles
 SCF Done:  E(RB3LYP) =  -4653.07159403     a.u. after    2 cycles
 Optimization completed on the basis of negligible forces.
    -- Stationary point found.
 Normal termination of Gaussian 16 at Tue Jul  4 11:23:05 2023.

 ------------------------------------------------------------------
 #N Geom=AllCheck Guess=TCheck SCRF=Check GenChk RB3LYP/ChkBas Freq
 ------------------------------------------------------------------

 Structure from the checkpoint file:  "paddle_new_AGE_TEABr_ro_CO2_opt_freq_reposition.chk"
 -----------------------------------------------
 paddle_new_AGE_TEABr_ro_CO2_opt_freq_reposition
 -----------------------------------------------
 Charge =  0 Multiplicity = 1

                          Input orientation:
 ---------------------------------------------------------------------
 Center     Atomic      Atomic             Coordinates (Angstroms)
 Number     Number       Type             X           Y           Z
 ---------------------------------------------------------------------
      1         30           0       -4.694489   -2.528905    2.326317
      2          8           0       -4.600022   -0.931734    3.631360
      3          8           0       -2.342631   -0.855895    3.537978
      4          8           0       -3.771400   -1.279734    0.828231
      5          8           0       -1.520783   -1.106655    0.667707
      6          6           0       -3.461226   -0.468815    3.942742
      7          6           0       -2.703539   -0.842639    0.321243
      8         30           0       -1.175207   -2.408187    2.235175
      9          8           0       -2.284678   -3.988395    0.969047
     10          8           0       -4.539354   -4.115561    1.014246
     11          8           0       -1.331403   -3.693014    3.803278
     12          8           0       -3.593209   -3.694425    3.770586
     13          6           0       -3.384903   -4.484776    0.641370
     14          6           0       -2.467582   -4.041605    4.218740
     15          1           0       -3.455408    0.383834    4.642316
     16          1           0       -2.790739   -0.146153   -0.527563
     17          1           0       -3.347035   -5.335536   -0.059501
     18          1           0       -2.451967   -4.740511    5.069891
     19          6           0       -7.533844   -1.751514    3.144391
     20          6           0       -8.925190   -1.779770    3.209727
     21          6           0       -9.615492   -2.737870    2.465207
     22          6           0       -8.889458   -3.635442    1.680343
     23          6           0       -7.499316   -3.544901    1.666524
     24          7           0       -6.834486   -2.619084    2.386057
     25          1           0      -10.700185   -2.784227    2.496111
     26          1           0       -6.942948   -1.030371    3.700081
     27          1           0       -9.449248   -1.063042    3.832903
     28          1           0       -9.385065   -4.395750    1.086214
     29          1           0       -6.881618   -4.214494    1.076539
     30          6           0        0.520417    1.671908    6.517376
     31          6           0        1.300407    1.574266    5.437037
     32          6           0        0.803408    1.298151    4.047266
     33          8           0        1.582086    0.262781    3.476935
     34          6           0        1.289544    0.039822    2.096483
     35          6           0        1.664361   -1.402631    1.731611
     36          6           0        1.664287   -1.626155    0.211420
     37          8           0        0.795580   -2.353495    2.236258
     38          1           0        0.930026    1.900033    7.498057
     39          1           0       -0.553536    1.509610    6.458225
     40          1           0        2.378738    1.707862    5.526746
     41          1           0        0.902948    2.220567    3.440656
     42          1           0       -0.261210    1.018538    4.059166
     43          1           0        1.856050    0.762778    1.486971
     44          1           0        0.218524    0.183497    1.902988
     45          1           0        2.688321   -1.574522    2.112973
     46          1           0        1.904761   -2.662214   -0.013490
     47          1           0        0.724705   -1.327784   -0.250404
     48          7           0        9.323654    7.878593   -9.418327
     49          6           0        8.775192    8.666291  -10.627481
     50          6           0        7.270430    8.622886  -10.872553
     51          1           0        9.313044    8.270702  -11.501210
     52          1           0        9.078220    9.701899  -10.450984
     53          1           0        7.103577    9.157016  -11.813418
     54          1           0        6.883739    7.613699  -11.013723
     55          1           0        6.683343    9.128889  -10.100249
     56          6           0        8.391804    8.049291   -8.231660
     57          6           0        8.839774    7.404936   -6.922216
     58          1           0        7.428152    7.640829   -8.531655
     59          1           0        8.266006    9.128533   -8.103645
     60          1           0        8.060745    7.595195   -6.177194
     61          1           0        8.950718    6.321056   -7.006041
     62          1           0        9.770233    7.824714   -6.532814
     63          6           0       10.688373    8.483285   -9.054888
     64          6           0       11.654868    8.714255  -10.214541
     65          1           0       11.128756    7.801136   -8.326361
     66          1           0       10.466507    9.425674   -8.544057
     67          1           0       12.641714    8.907473   -9.780939
     68          1           0       11.730791    7.864246  -10.899138
     69          1           0       11.379340    9.583125  -10.815579
     70          6           0        9.559677    6.396005   -9.755568
     71          6           0        8.331274    5.543955  -10.042216
     72          1           0       10.119726    5.997221   -8.907378
     73          1           0       10.186439    6.391655  -10.656259
     74          1           0        8.684305    4.510323  -10.113993
     75          1           0        7.563082    5.575454   -9.262716
     76          1           0        7.896991    5.784870  -11.013421
     77         35           0        3.091110   -0.576992   -0.816094
     78          6           0        1.626436   -4.422067    3.816320
     79          8           0        1.435217   -5.210223    2.970619
     80          8           0        1.888800   -3.731509    4.724243
 ---------------------------------------------------------------------

 SCF Done:  E(RB3LYP) =  -4653.07159403     a.u. after    1 cycles

 Alpha  occ. eigenvalues -- -482.58246 -61.66736 -56.23640 -56.23356 -56.23345
 Alpha  occ. eigenvalues --  -19.12615 -19.12600 -19.06652 -19.06281 -19.06123
 Alpha  occ. eigenvalues --  -19.05857 -19.05722 -19.05140 -19.05129 -19.05013
 Alpha  occ. eigenvalues --  -19.04819 -18.99213 -14.57803 -14.34518 -10.36598
 Alpha  occ. eigenvalues --  -10.36386 -10.36313 -10.35962 -10.30492 -10.30151
 Alpha  occ. eigenvalues --  -10.30075 -10.29896 -10.27852 -10.22556 -10.22322
 Alpha  occ. eigenvalues --  -10.22148 -10.21826 -10.21360 -10.21349 -10.20267
 Alpha  occ. eigenvalues --  -10.18960 -10.18956 -10.15924 -10.14456 -10.13808
 Alpha  occ. eigenvalues --  -10.13301 -10.13079 -10.12372  -8.43794  -6.45249
 Alpha  occ. eigenvalues --   -6.44240  -6.44228  -2.57235  -2.56955  -2.56945
 Alpha  occ. eigenvalues --   -2.56141  -2.56141  -1.12799  -1.05287  -1.01136
 Alpha  occ. eigenvalues --   -0.98822  -0.98328  -0.98238  -0.97796  -0.95187
 Alpha  occ. eigenvalues --   -0.94163  -0.91092  -0.90886  -0.90705  -0.90235
 Alpha  occ. eigenvalues --   -0.89914  -0.89741  -0.89492  -0.85779  -0.85631
 Alpha  occ. eigenvalues --   -0.79970  -0.78290  -0.77634  -0.76647  -0.75639
 Alpha  occ. eigenvalues --   -0.72400  -0.70188  -0.69955  -0.64474  -0.64288
 Alpha  occ. eigenvalues --   -0.64166  -0.62606  -0.62341  -0.62224  -0.60249
 Alpha  occ. eigenvalues --   -0.59821  -0.58472  -0.56245  -0.56138  -0.55750
 Alpha  occ. eigenvalues --   -0.55107  -0.54080  -0.53756  -0.53229  -0.52840
 Alpha  occ. eigenvalues --   -0.52735  -0.52645  -0.52090  -0.51992  -0.51544
 Alpha  occ. eigenvalues --   -0.51395  -0.51198  -0.51010  -0.50743  -0.50646
 Alpha  occ. eigenvalues --   -0.50616  -0.50301  -0.50009  -0.49928  -0.49622
 Alpha  occ. eigenvalues --   -0.49495  -0.49296  -0.48847  -0.48150  -0.47995
 Alpha  occ. eigenvalues --   -0.47726  -0.47441  -0.47233  -0.47087  -0.46617
 Alpha  occ. eigenvalues --   -0.45982  -0.45761  -0.42376  -0.42196  -0.42086
 Alpha  occ. eigenvalues --   -0.41339  -0.41299  -0.40783  -0.40507  -0.40388
 Alpha  occ. eigenvalues --   -0.39936  -0.39727  -0.39367  -0.39058  -0.38947
 Alpha  occ. eigenvalues --   -0.38404  -0.37943  -0.37868  -0.36984  -0.35568
 Alpha  occ. eigenvalues --   -0.35439  -0.35408  -0.35096  -0.34044  -0.33917
 Alpha  occ. eigenvalues --   -0.33790  -0.32133  -0.31316  -0.30643  -0.30450
 Alpha  occ. eigenvalues --   -0.29268  -0.28666  -0.27379  -0.26610  -0.26467
 Alpha  occ. eigenvalues --   -0.26252  -0.25625  -0.24889  -0.24272  -0.22459
 Alpha  occ. eigenvalues --   -0.22101  -0.21745  -0.21244  -0.20951  -0.20778
 Alpha  occ. eigenvalues --   -0.20654  -0.20419  -0.20283  -0.20002  -0.19902
 Alpha  occ. eigenvalues --   -0.19816  -0.19311  -0.18053  -0.17376  -0.14540
 Alpha  occ. eigenvalues --   -0.13894
 Alpha virt. eigenvalues --   -0.10209  -0.08523  -0.08425  -0.08254  -0.06266
 Alpha virt. eigenvalues --   -0.06154  -0.05112  -0.04833  -0.04462  -0.04282
 Alpha virt. eigenvalues --   -0.03091  -0.02607  -0.02388  -0.01748  -0.01188

 Mulliken charges:
               1
     1  Zn   0.752864
     2  O   -0.507836
     3  O   -0.464537
     4  O   -0.444969
     5  O   -0.490396
     6  C    0.430908
     7  C    0.470593
     8  Zn   0.380114
     9  O   -0.454176
    10  O   -0.519206
    11  O   -0.459373
    12  O   -0.464474
    13  C    0.441812
    14  C    0.460012
    15  H    0.061923
    16  H    0.066387
    17  H    0.067394
    18  H    0.070778
    19  C   -0.298485
    20  C    0.093686
    21  C   -0.569346
    22  C    0.062516
    23  C   -0.305475
    24  N    0.212436
    25  H    0.135622
    26  H    0.199893
    27  H    0.136867
    28  H    0.136965
    29  H    0.200852
    30  C   -0.320469
    31  C    0.119117
    32  C   -0.219489
    33  O   -0.291997
    34  C   -0.441631
    35  C    0.504515
    36  C   -0.259809
    37  O   -0.507978
    38  H    0.117501
    39  H    0.130336
    40  H    0.122998
    41  H    0.106301
    42  H    0.145909
    43  H    0.107443
    44  H    0.135557
    45  H    0.098654
    46  H    0.178053
    47  H    0.201183
    48  N   -0.711773
    49  C    0.078192
    50  C   -0.609546
    51  H    0.192254
    52  H    0.188913
    53  H    0.186958
    54  H    0.173316
    55  H    0.179761
    56  C    0.047393
    57  C   -0.559845
    58  H    0.194808
    59  H    0.192223
    60  H    0.195699
    61  H    0.177575
    62  H    0.174649
    63  C    0.119793
    64  C   -0.535301
    65  H    0.187702
    66  H    0.194630
    67  H    0.188952
    68  H    0.171459
    69  H    0.175703
    70  C    0.033417
    71  C   -0.542492
    72  H    0.186703
    73  H    0.183352
    74  H    0.191050
    75  H    0.176371
    76  H    0.168082
    77  Br  -0.356755
    78  C    0.618883
    79  O   -0.305501
    80  O   -0.286171
 Sum of Mulliken charges =  -0.00000

 Dipole moment (field-independent basis, Debye):
    X=             37.5760    Y=             46.8537    Z=            -54.8105  Tot=             81.3106
 Quadrupole moment (field-independent basis, Debye-Ang):
   XX=            181.1838   YY=             -5.0172   ZZ=            123.4161
   XY=            356.2729   XZ=           -428.0829   YZ=           -327.3204

  Exact polarizability:     468.097      27.726     357.846     -27.967      18.757     389.918
 Approx polarizability:     631.397      24.728     512.103     -32.363      36.606     540.930

                      1                      2                      3
                      A                      A                      A
 Frequencies --      5.7417                 9.9374                14.2216
 Red. masses --     10.6529                 9.9286                 5.6145
 Frc consts  --      0.0002                 0.0006                 0.0007
 IR Inten    --      0.1735                 0.3060                 0.2424

                      4                      5                      6
                      A                      A                      A
 Frequencies --     15.5240                18.9749                27.2920
 Red. masses --      7.4507                13.1413                12.5246
 Frc consts  --      0.0011                 0.0028                 0.0055
 IR Inten    --      0.0446                 0.8137                 0.3499

                      7                      8                      9
                      A                      A                      A
 Frequencies --     33.8513                45.5566                52.9564
 Red. masses --      3.7169                 4.8665                13.5389
 Frc consts  --      0.0025                 0.0060                 0.0224
 IR Inten    --      1.2230                 1.9651                 0.3893

                     10                     11                     12
                      A                      A                      A
 Frequencies --     56.9972                65.5054                84.8122
 Red. masses --      6.4964                 8.0268                 4.8363
 Frc consts  --      0.0124                 0.0203                 0.0205
 IR Inten    --      0.8027                 2.3957                 0.6984

                     13                     14                     15
                      A                      A                      A
 Frequencies --     95.1817                98.7711               118.3244
 Red. masses --      4.7248                14.1121                 8.6794
 Frc consts  --      0.0252                 0.0811                 0.0716
 IR Inten    --      3.2304                12.6828                 1.4492

                     16                     17                     18
                      A                      A                      A
 Frequencies --    120.7539               135.7557               153.3972
 Red. masses --      5.0762                 3.3106                 7.5697
 Frc consts  --      0.0436                 0.0359                 0.1049
 IR Inten    --      5.1296                 3.9983                22.3721

                     19                     20                     21
                      A                      A                      A
 Frequencies --    186.1048               206.5846               215.0155
 Red. masses --      3.8063                17.1060                15.7928
 Frc consts  --      0.0777                 0.4301                 0.4302
 IR Inten    --     12.1296                 2.2201                 0.0037

                     22                     23                     24
                      A                      A                      A
 Frequencies --    248.3505               264.8772               276.2651
 Red. masses --     13.6796                15.6609                14.8061
 Frc consts  --      0.4971                 0.6474                 0.6658
 IR Inten    --     30.2173                33.9568                 0.4813

                     25                     26                     27
                      A                      A                      A
 Frequencies --    283.6290               293.8629               373.0480
 Red. masses --      3.2032                 6.3608                 4.3171
 Frc consts  --      0.1518                 0.3236                 0.3540
 IR Inten    --      6.1034                19.5711                 7.5366

                     28                     29                     30
                      A                      A                      A
 Frequencies --    405.6256               405.9822               412.2012
 Red. masses --     15.9125                13.5451                 8.3851
 Frc consts  --      1.5426                 1.3154                 0.8394
 IR Inten    --     47.9384                 8.0650                55.9952

                     31                     32                     33
                      A                      A                      A
 Frequencies --    429.2304               490.0256               491.6682
 Red. masses --      2.4350                 5.6434                 3.6523
 Frc consts  --      0.2643                 0.7984                 0.5202
 IR Inten    --      8.0732                 2.6851                25.4925

                     34                     35                     36
                      A                      A                      A
 Frequencies --    511.4390               515.3560               565.0928
 Red. masses --     14.1703                 3.4412                 4.2136
 Frc consts  --      2.1838                 0.5385                 0.7928
 IR Inten    --     76.8956                67.8779               239.5960

                     37                     38                     39
                      A                      A                      A
 Frequencies --    614.3722               645.5473               656.9021
 Red. masses --     12.3422                 1.7139                12.8148
 Frc consts  --      2.7448                 0.4208                 3.2581
 IR Inten    --     86.1194                 4.9330                43.1381

                     40                     41                     42
                      A                      A                      A
 Frequencies --    814.5055               922.3333               932.1696
 Red. masses --      1.6979                 1.8030                 1.3375
 Frc consts  --      0.6637                 0.9037                 0.6847
 IR Inten    --      4.8072                41.2152                42.1080

                     43                     44                     45
                      A                      A                      A
 Frequencies --    937.0077               983.9398              1006.4313
 Red. masses --      1.4719                 1.9591                 2.7008
 Frc consts  --      0.7614                 1.1175                 1.6118
 IR Inten    --     16.3018                 6.9431                55.7127

                     46                     47                     48
                      A                      A                      A
 Frequencies --   1021.9283              1038.6633              1044.5860
 Red. masses --      1.2336                 1.9783                13.4130
 Frc consts  --      0.7590                 1.2574                 8.6232
 IR Inten    --     35.5567                28.9159                24.7420

                     49                     50                     51
                      A                      A                      A
 Frequencies --   1052.6735              1063.0590              1083.9828
 Red. masses --     15.6717                15.9210                14.5245
 Frc consts  --     10.2319                10.6007                10.0553
 IR Inten    --     37.5533                49.2866               694.4285

                     52                     53                     54
                      A                      A                      A
 Frequencies --   1088.7931              1139.5619              1165.1178
 Red. masses --      2.5279                 3.8185                 2.0142
 Frc consts  --      1.7656                 2.9216                 1.6110
 IR Inten    --     54.4309               193.1798                38.3856

                     55                     56                     57
                      A                      A                      A
 Frequencies --   1167.9159              1191.5405              1227.2687
 Red. masses --      3.0534                 1.9991                 1.2084
 Frc consts  --      2.4539                 1.6723                 1.0724
 IR Inten    --    111.9290                18.3796                23.7278

                     58                     59                     60
                      A                      A                      A
 Frequencies --   1264.1371              1282.8246              1309.1398
 Red. masses --      1.1238                 1.1682                 1.2861
 Frc consts  --      1.0581                 1.1326                 1.2986
 IR Inten    --      4.7457                28.6965                 0.1068

                     61                     62                     63
                      A                      A                      A
 Frequencies --   1330.7658              1356.7427              1359.3769
 Red. masses --      1.2612                 2.7418                 1.8579
 Frc consts  --      1.3160                 2.9736                 2.0228
 IR Inten    --     15.0115                10.7523                10.2395

                     64                     65                     66
                      A                      A                      A
 Frequencies --   1383.9487              1431.1277              1465.6401
 Red. masses --      1.2823                 1.3707                 1.2493
 Frc consts  --      1.4470                 1.6541                 1.5811
 IR Inten    --     18.5690                 2.7639                24.7203

                     67                     68                     69
                      A                      A                      A
 Frequencies --   1472.4065              1503.4075              1518.4984
 Red. masses --      1.1166                 1.0982                 1.0833
 Frc consts  --      1.4263                 1.4624                 1.4718
 IR Inten    --      4.2745                 3.4419                 3.3323

                     70                     71                     72
                      A                      A                      A
 Frequencies --   1713.1054              2396.3908              2909.8455
 Red. masses --      4.6788                12.8670                 1.0697
 Frc consts  --      8.0901                43.5353                 5.3366
 IR Inten    --      7.0855               513.4345                73.4719

                     73                     74                     75
                      A                      A                      A
 Frequencies --   2938.6212              2982.1580              3017.7252
 Red. masses --      1.0820                 1.0640                 1.0887
 Frc consts  --      5.5053                 5.5752                 5.8414
 IR Inten    --     76.9542                68.0240                15.5814

                     76                     77                     78
                      A                      A                      A
 Frequencies --   3059.0837              3135.6600              3140.6559
 Red. masses --      1.0972                 1.0554                 1.0594
 Frc consts  --      6.0496                 6.1138                 6.1567
 IR Inten    --     29.8995                 4.6440                17.2848

                     79                     80                     81
                      A                      A                      A
 Frequencies --   3154.3471              3220.5655              3226.0902
 Red. masses --      1.0896                 1.1139                 1.1159
 Frc consts  --      6.3878                 6.8072                 6.8424
 IR Inten    --     13.5325                 2.0838                28.2619

 - Thermochemistry -
 -------------------
 Temperature   298.150 Kelvin.  Pressure   1.00000 Atm.
 Atom     1 has atomic number 30 and mass  63.92915

 Molecular mass:   754.02693 amu.
 Principal axes and moments of inertia in atomic units:
                           1         2         3
     Eigenvalues --  ******************************
           X            0.65355   0.74098  -0.15433
           Y            0.48983  -0.25863   0.83257
           Z           -0.57701   0.61972   0.53199
 This molecule is an asymmetric top.
 Rotational symmetry number  1.
 Warning -- assumption of classical behavior for rotation
           may cause significant error
 Rotational temperatures (Kelvin)      0.00388     0.00053     0.00051
 Rotational constants (GHZ):           0.08094     0.01114     0.01056
 Zero-point vibrational energy     479095.3 (Joules/Mol)
                                  114.50652 (Kcal/Mol)
 Warning -- explicit consideration of  37 degrees of freedom as
           vibrations may cause significant error
 Vibrational temperatures:      8.26    14.30    20.46    22.34    27.30
          (Kelvin)             39.27    48.70    65.55    76.19    82.01
                               94.25   122.03   136.95   142.11   170.24
                              173.74   195.32   220.70   267.76   297.23
                              309.36   357.32   381.10   397.48   408.08
                              422.80   536.73   583.60   584.12   593.07
                              617.57   705.04   707.40   735.85   741.48
                              813.04   883.94   928.80   945.14  1171.89
                             1327.03  1341.18  1348.15  1415.67  1448.03
                             1470.33  1494.40  1502.93  1514.56  1529.50
                             1559.61  1566.53  1639.58  1676.34  1680.37
                             1714.36  1765.77  1818.81  1845.70  1883.56
                             1914.68  1952.05  1955.84  1991.19  2059.07
                             2108.73  2118.46  2163.07  2184.78  2464.78
                             3447.87  4186.62  4228.02  4290.66  4341.83
                             4401.34  4511.52  4518.70  4538.40  4633.68
                             4641.62

 Zero-point correction=                           0.182478 (Hartree/Particle)
 Thermal correction to Energy=                    0.207535
 Thermal correction to Enthalpy=                  0.208480
 Thermal correction to Gibbs Free Energy=         0.111846
 Sum of electronic and zero-point Energies=          -4652.889116
 Sum of electronic and thermal Energies=             -4652.864059
 Sum of electronic and thermal Enthalpies=           -4652.863114
 Sum of electronic and thermal Free Energies=        -4652.959748

                     E (Thermal)             CV                S
                      KCal/Mol        Cal/Mol-Kelvin    Cal/Mol-Kelvin
 Total                  130.230             79.174            203.382
 Electronic               0.000              0.000              0.000
 Translational            0.889              2.981             45.740
 Rotational               0.889              2.981             41.641
 Vibrational            128.453             73.212            116.001
 Vibration     1          0.593              1.987              9.113
 Vibration     2          0.593              1.987              8.024
 Vibration     3          0.593              1.986              7.311
 Vibration     4          0.593              1.986              7.137
 Vibration     5          0.593              1.986              6.739
 Vibration     6          0.593              1.984              6.017
 Vibration     7          0.594              1.983              5.590
 Vibration     8          0.595              1.979              5.002
 Vibration     9          0.596              1.976              4.704
 Vibration    10          0.596              1.975              4.559
 Vibration    11          0.597              1.971              4.284
 Vibration    12          0.601              1.960              3.776
 Vibration    13          0.603              1.953              3.551
 Vibration    14          0.604              1.950              3.478
 Vibration    15          0.608              1.934              3.128
 Vibration    16          0.609              1.932              3.088
 Vibration    17          0.614              1.918              2.863
 Vibration    18          0.619              1.899              2.630
 Vibration    19          0.632              1.859              2.266
 Vibration    20          0.641              1.830              2.074
 Vibration    21          0.645              1.818              2.001
 Vibration    22          0.662              1.766              1.742
 Vibration    23          0.671              1.737              1.629
 Vibration    24          0.678              1.717              1.557
 Vibration    25          0.682              1.704              1.512
 Vibration    26          0.689              1.685              1.452
 Vibration    27          0.744              1.527              1.067
 Vibration    28          0.771              1.458              0.942
 Vibration    29          0.771              1.457              0.941
 Vibration    30          0.776              1.444              0.919
 Vibration    31          0.791              1.407              0.861
 Vibration    32          0.846              1.272              0.684
 Vibration    33          0.847              1.269              0.679
 Vibration    34          0.867              1.225              0.630
 Vibration    35          0.870              1.216              0.621
 Vibration    36          0.921              1.107              0.514
 Vibration    37          0.974              1.001              0.426

 Optimization completed on the basis of negligible forces.
    -- Stationary point found.
 Normal termination of Gaussian 16 at Tue Jul  4 11:56:03 2023.
