 Gaussian 16, Revision B.01,
 Gaussian 16:  ES64L-G16RevB.01 20-Dec-2017

 ----------------------------------------------------------------------
 # opt=(calcall,tight,cartesian) freq b3lyp/gen nosymm scf=(qc,maxcycle
 =1024) pseudo=read
 ----------------------------------------------------------------------

 -------------------------------
 paddle_new_AGC_opt_freq_6_31Gdp
 -------------------------------
 Symbolic Z-matrix:
 Charge =  0 Multiplicity = 1

 SCF Done:  E(RB3LYP) =  -1710.07179154     a.u. after    8 cycles
 SCF Done:  E(RB3LYP) =  -1710.07950436     a.u. after   11 cycles
 SCF Done:  E(RB3LYP) =  -1710.07995041     a.u. after    9 cycles
 SCF Done:  E(RB3LYP) =  -1710.08001191     a.u. after    7 cycles
 SCF Done:  E(RB3LYP) =  -1710.08004082     a.u. after    9 cycles
 SCF Done:  E(RB3LYP) =  -1710.08006196     a.u. after   10 cycles
 SCF Done:  E(RB3LYP) =  -1710.08008094     a.u. after    9 cycles
 SCF Done:  E(RB3LYP) =  -1710.08010364     a.u. after    9 cycles
 SCF Done:  E(RB3LYP) =  -1710.08012806     a.u. after    9 cycles
 SCF Done:  E(RB3LYP) =  -1710.08016680     a.u. after    8 cycles
 SCF Done:  E(RB3LYP) =  -1710.08086769     a.u. after    2 cycles
 SCF Done:  E(RB3LYP) =  -1710.08086605     a.u. after    9 cycles
 SCF Done:  E(RB3LYP) =  -1710.08086751     a.u. after    4 cycles
 SCF Done:  E(RB3LYP) =  -1710.08086767     a.u. after    5 cycles
 SCF Done:  E(RB3LYP) =  -1710.08086775     a.u. after    7 cycles
 SCF Done:  E(RB3LYP) =  -1710.08086789     a.u. after    4 cycles
 SCF Done:  E(RB3LYP) =  -1710.08086792     a.u. after    2 cycles
 SCF Done:  E(RB3LYP) =  -1710.08086792     a.u. after    2 cycles
 SCF Done:  E(RB3LYP) =  -1710.08086792     a.u. after    2 cycles
 Optimization completed on the basis of negligible forces.
    -- Stationary point found.
 Normal termination of Gaussian 16 at Tue Aug  1 07:58:51 2023.

 ------------------------------------------------------------------
 #N Geom=AllCheck Guess=TCheck SCRF=Check GenChk RB3LYP/ChkBas Freq
 ------------------------------------------------------------------

 Structure from the checkpoint file:  "paddle_new_AGC_opt_freq_6_31Gdp.chk"
 -------------------------------
 paddle_new_AGC_opt_freq_6_31Gdp
 -------------------------------
 Charge =  0 Multiplicity = 1

                          Input orientation:
 ---------------------------------------------------------------------
 Center     Atomic      Atomic             Coordinates (Angstroms)
 Number     Number       Type             X           Y           Z
 ---------------------------------------------------------------------
      1         30           0       -4.694489   -2.528905    2.326317
      2          8           0       -4.600022   -0.931734    3.631360
      3          8           0       -2.342336   -0.871758    3.534911
      4          8           0       -3.771400   -1.279734    0.828231
      5          8           0       -1.520113   -1.120128    0.677042
      6          6           0       -3.461226   -0.468815    3.942742
      7          6           0       -2.703539   -0.842639    0.321243
      8         30           0       -1.499368   -2.402547    2.261288
      9          8           0       -2.282765   -3.981898    0.977942
     10          8           0       -4.539354   -4.115561    1.014246
     11          8           0       -1.332289   -3.677124    3.797540
     12          8           0       -3.593209   -3.694425    3.770586
     13          6           0       -3.384903   -4.484776    0.641370
     14          6           0       -2.467582   -4.041605    4.218740
     15          1           0       -3.455408    0.383834    4.642316
     16          1           0       -2.790739   -0.146153   -0.527563
     17          1           0       -3.347035   -5.335536   -0.059501
     18          1           0       -2.451967   -4.740511    5.069891
     19          6           0       -7.533844   -1.751514    3.144391
     20          6           0       -8.925190   -1.779770    3.209727
     21          6           0       -9.615492   -2.737870    2.465207
     22          6           0       -8.889458   -3.635442    1.680343
     23          6           0       -7.499316   -3.544901    1.666524
     24          7           0       -6.834486   -2.619084    2.386057
     25          1           0      -10.700185   -2.784227    2.496111
     26          1           0       -6.942948   -1.030371    3.700081
     27          1           0       -9.449248   -1.063042    3.832903
     28          1           0       -9.385065   -4.395750    1.086214
     29          1           0       -6.881618   -4.214494    1.076539
     30          6           0        6.910857    3.019397   -0.186552
     31          6           0        6.059501    2.118251    0.308548
     32          6           0        5.191135    1.233012   -0.534228
     33          8           0        3.837213    1.370739   -0.094231
     34          6           0        2.906966    0.552849   -0.769147
     35          6           0        2.823800   -0.868220   -0.221584
     36          6           0        1.895949   -1.792586   -1.028726
     37          8           0        2.194343   -0.868178    1.086137
     38          1           0        7.543930    3.617824    0.461672
     39          1           0        7.006461    3.189010   -1.256937
     40          1           0        5.970438    1.973780    1.384086
     41          1           0        5.518952    0.185101   -0.428167
     42          1           0        5.272121    1.504613   -1.598453
     43          1           0        3.137794    0.497150   -1.847086
     44          1           0        1.926925    1.027431   -0.653951
     45          1           0        3.820068   -1.304111   -0.093695
     46          1           0        2.425674   -2.505362   -1.661576
     47          1           0        1.158844   -1.238373   -1.620314
     48          6           0        1.298056   -1.862767    1.155060
     49          8           0        0.675216   -2.143203    2.157128
     50          8           0        1.191908   -2.523619   -0.008712
 ---------------------------------------------------------------------

 SCF Done:  E(RB3LYP) =  -1710.08086792     a.u. after    1 cycles

 Alpha  occ. eigenvalues --  -19.23312 -19.23252 -19.17975 -19.17455 -19.13172
 Alpha  occ. eigenvalues --  -19.12726 -19.12541 -19.12464 -19.12240 -19.12066
 Alpha  occ. eigenvalues --  -19.12007 -19.11942 -14.38605 -10.39751 -10.29506
 Alpha  occ. eigenvalues --  -10.29157 -10.28858 -10.28798 -10.28771 -10.28628
 Alpha  occ. eigenvalues --  -10.27004 -10.25929 -10.25201 -10.25191 -10.23750
 Alpha  occ. eigenvalues --  -10.22535 -10.22526 -10.20851 -10.20059  -1.19237
 Alpha  occ. eigenvalues --   -1.08010  -1.07253  -1.06336  -1.05838  -1.05184
 Alpha  occ. eigenvalues --   -1.04867  -1.04648  -0.98105  -0.97187  -0.96548
 Alpha  occ. eigenvalues --   -0.96363  -0.96304  -0.83583  -0.83572  -0.80518
 Alpha  occ. eigenvalues --   -0.79369  -0.74209  -0.70155  -0.66388  -0.66206
 Alpha  occ. eigenvalues --   -0.65877  -0.63270  -0.61789  -0.61033  -0.60158
 Alpha  occ. eigenvalues --   -0.59827  -0.59659  -0.59527  -0.59071  -0.58904
 Alpha  occ. eigenvalues --   -0.58871  -0.58659  -0.58635  -0.58442  -0.57236
 Alpha  occ. eigenvalues --   -0.56783  -0.56781  -0.55736  -0.54472  -0.54115
 Alpha  occ. eigenvalues --   -0.53282  -0.51768  -0.51180  -0.50318  -0.49665
 Alpha  occ. eigenvalues --   -0.49163  -0.48799  -0.47909  -0.47020  -0.46885
 Alpha  occ. eigenvalues --   -0.46634  -0.46305  -0.45802  -0.45685  -0.44952
 Alpha  occ. eigenvalues --   -0.44580  -0.44506  -0.43755  -0.43396  -0.43140
 Alpha  occ. eigenvalues --   -0.42237  -0.42094  -0.41229  -0.41007  -0.40726
 Alpha  occ. eigenvalues --   -0.40461  -0.40404  -0.39194  -0.38746  -0.37314
 Alpha  occ. eigenvalues --   -0.34873  -0.34588  -0.34109  -0.34035  -0.33455
 Alpha  occ. eigenvalues --   -0.32341  -0.31687  -0.29502  -0.29346  -0.29120
 Alpha  occ. eigenvalues --   -0.29031  -0.28759  -0.28078  -0.27992  -0.27565
 Alpha  occ. eigenvalues --   -0.27520  -0.27018  -0.26769  -0.26691  -0.26525
 Alpha  occ. eigenvalues --   -0.24840
 Alpha virt. eigenvalues --   -0.06784  -0.04471  -0.02186  -0.01636  -0.00711
 Alpha virt. eigenvalues --   -0.00531   0.00150   0.00609   0.01105   0.01560
 Alpha virt. eigenvalues --    0.01653   0.02074   0.02300   0.02361   0.02445

 Mulliken charges:
               1
     1  Zn   0.695129
     2  O   -0.498591
     3  O   -0.442711
     4  O   -0.428331
     5  O   -0.488024
     6  C    0.488321
     7  C    0.453106
     8  Zn   0.618477
     9  O   -0.452631
    10  O   -0.498566
    11  O   -0.420384
    12  O   -0.440888
    13  C    0.481377
    14  C    0.440512
    15  H    0.091641
    16  H    0.087722
    17  H    0.088751
    18  H    0.094203
    19  C   -0.302335
    20  C    0.070725
    21  C   -0.562166
    22  C    0.073838
    23  C   -0.307953
    24  N    0.211293
    25  H    0.145437
    26  H    0.196585
    27  H    0.144855
    28  H    0.144425
    29  H    0.195803
    30  C   -0.327821
    31  C    0.133069
    32  C   -0.298472
    33  O   -0.319154
    34  C   -0.250795
    35  C    0.352413
    36  C   -0.217972
    37  O   -0.271849
    38  H    0.143009
    39  H    0.132721
    40  H    0.146790
    41  H    0.123428
    42  H    0.123399
    43  H    0.126117
    44  H    0.166760
    45  H    0.148614
    46  H    0.164037
    47  H    0.167807
    48  C    0.476724
    49  O   -0.330674
    50  O   -0.267772
 Sum of Mulliken charges =  -0.00000

 Dipole moment (field-independent basis, Debye):
    X=             -0.5958    Y=              1.1667    Z=             -6.0646  Tot=              6.2045
 Quadrupole moment (field-independent basis, Debye-Ang):
   XX=            -93.7592   YY=           -195.4720   ZZ=           -194.3258
   XY=             11.3762   XZ=            -22.4859   YZ=             11.5736

  Exact polarizability: 340.344  38.977 239.152 -22.822   9.304 229.577
 Approx polarizability: 446.637  30.761 336.216 -20.175  26.511 331.337

                      1                      2                      3
                      A                      A                      A
 Frequencies --      2.1557                 5.3225                21.6858
 Red. masses --      5.5203                 5.4911                 4.5675
 Frc consts  --      0.0000                 0.0001                 0.0013
 IR Inten    --      0.3978                 0.5219                 1.9694

                      4                      5                      6
                      A                      A                      A
 Frequencies --     22.2603                38.7713                45.0538
 Red. masses --      5.0673                 6.8174                 2.0627
 Frc consts  --      0.0015                 0.0060                 0.0025
 IR Inten    --      1.7020                 1.0076                 0.7385

                      7                      8                      9
                      A                      A                      A
 Frequencies --     48.7186                65.2874                91.8554
 Red. masses --      6.3577                 4.9554                 5.5843
 Frc consts  --      0.0089                 0.0124                 0.0278
 IR Inten    --      1.2820                 0.2780                 1.2920

                     10                     11                     12
                      A                      A                      A
 Frequencies --    120.9373               136.3759               136.8649
 Red. masses --      6.9151                12.8063                 4.6974
 Frc consts  --      0.0596                 0.1403                 0.0518
 IR Inten    --      3.4421                10.6521                 4.8079

                     13                     14                     15
                      A                      A                      A
 Frequencies --    169.3509               183.7208               214.3809
 Red. masses --      8.0407                 7.1008                30.1714
 Frc consts  --      0.1359                 0.1412                 0.8170
 IR Inten    --     56.5041                 4.4214                 2.6416

                     16                     17                     18
                      A                      A                      A
 Frequencies --    218.3514               248.9125               261.0796
 Red. masses --     15.9305                 4.4067                11.6482
 Frc consts  --      0.4475                 0.1609                 0.4678
 IR Inten    --      0.0938                 7.8312                32.1688

                     19                     20                     21
                      A                      A                      A
 Frequencies --    269.1828               275.0572               286.2871
 Red. masses --      2.7766                18.6843                15.7670
 Frc consts  --      0.1185                 0.8329                 0.7614
 IR Inten    --     13.4834                45.6947                 0.1277

                     22                     23                     24
                      A                      A                      A
 Frequencies --    306.1524               424.9839               426.9474
 Red. masses --      3.5242                16.0407                15.9779
 Frc consts  --      0.1946                 1.7069                 1.7160
 IR Inten    --      1.1892                23.8034                46.9179

                     25                     26                     27
                      A                      A                      A
 Frequencies --    434.2906               448.9418               492.1801
 Red. masses --      2.6128                 2.6030                 3.0357
 Frc consts  --      0.2903                 0.3091                 0.4333
 IR Inten    --      8.9085                 9.1873                 2.5488

                     28                     29                     30
                      A                      A                      A
 Frequencies --    516.8774               549.0423               554.1163
 Red. masses --     15.9076                17.1070                 5.6835
 Frc consts  --      2.5040                 3.0383                 1.0282
 IR Inten    --     26.7914                87.6510                 3.6409

                     31                     32                     33
                      A                      A                      A
 Frequencies --    642.7900               683.2027               726.1566
 Red. masses --      1.6580                 3.4747                 8.4551
 Frc consts  --      0.4036                 0.9556                 2.6268
 IR Inten    --      5.1197                23.3004                14.5192

                     34                     35                     36
                      A                      A                      A
 Frequencies --    776.1970               870.6972               920.2495
 Red. masses --     11.3590                 4.4258                 1.7589
 Frc consts  --      4.0321                 1.9769                 0.8776
 IR Inten    --     48.7058                 6.6918                16.4297

                     37                     38                     39
                      A                      A                      A
 Frequencies --    946.7760               960.1612               971.4201
 Red. masses --      1.5040                 1.3373                 4.3362
 Frc consts  --      0.7943                 0.7264                 2.4109
 IR Inten    --      4.8970                49.8817                 3.0932

                     40                     41                     42
                      A                      A                      A
 Frequencies --    984.0625               999.5838              1024.8226
 Red. masses --      2.8074                 1.9221                 1.4131
 Frc consts  --      1.6018                 1.1315                 0.8744
 IR Inten    --     10.0182                 5.9569                71.7649

                     43                     44                     45
                      A                      A                      A
 Frequencies --   1025.4436              1030.2338              1052.9247
 Red. masses --      5.9713                15.9460                15.9564
 Frc consts  --      3.6995                 9.9718                10.4227
 IR Inten    --     28.8174                28.1429                62.1255

                     46                     47                     48
                      A                      A                      A
 Frequencies --   1071.3590              1076.9610              1086.8668
 Red. masses --     10.1119                 2.9968                 5.1662
 Frc consts  --      6.8384                 2.0479                 3.5956
 IR Inten    --    723.9450                39.2051                20.7976

                     49                     50                     51
                      A                      A                      A
 Frequencies --   1109.2875              1131.6574              1155.9448
 Red. masses --      8.3866                 2.5004                 5.3673
 Frc consts  --      6.0803                 1.8867                 4.2255
 IR Inten    --    229.2418                29.3335               155.7602

                     52                     53                     54
                      A                      A                      A
 Frequencies --   1179.1525              1210.9895              1234.6989
 Red. masses --      1.8746                 2.5476                 1.1757
 Frc consts  --      1.5356                 2.2012                 1.0560
 IR Inten    --      1.5721               210.6729                10.2927

                     55                     56                     57
                      A                      A                      A
 Frequencies --   1262.6382              1306.7650              1316.1849
 Red. masses --      1.1325                 1.1660                 1.2518
 Frc consts  --      1.0638                 1.1731                 1.2777
 IR Inten    --      5.9426                61.1127                 7.5589

                     58                     59                     60
                      A                      A                      A
 Frequencies --   1337.0388              1375.6234              1398.3274
 Red. masses --      1.3579                 1.2928                 1.2761
 Frc consts  --      1.4303                 1.4414                 1.4701
 IR Inten    --     20.5282                12.2497                10.7474

                     61                     62                     63
                      A                      A                      A
 Frequencies --   1425.7420              1433.5267              1466.2814
 Red. masses --      1.5751                 1.5020                 1.2106
 Frc consts  --      1.8864                 1.8186                 1.5334
 IR Inten    --     24.9521                46.5657                16.5366

                     64                     65                     66
                      A                      A                      A
 Frequencies --   1479.6069              1509.0240              1522.3901
 Red. masses --      1.1130                 1.0936                 1.0922
 Frc consts  --      1.4356                 1.4672                 1.4915
 IR Inten    --      2.4501                 2.7410                 8.6334

                     67                     68                     69
                      A                      A                      A
 Frequencies --   1718.5150              1837.3641              2968.0149
 Red. masses --      4.6100                12.7383                 1.0603
 Frc consts  --      8.0215                25.3369                 5.5034
 IR Inten    --      2.5246              1119.6354                29.7652

                     70                     71                     72
                      A                      A                      A
 Frequencies --   2980.6510              3013.9143              3069.8364
 Red. masses --      1.0683                 1.1011                 1.0672
 Frc consts  --      5.5922                 5.8932                 5.9255
 IR Inten    --     52.9841                43.1437                18.0029

                     73                     74                     75
                      A                      A                      A
 Frequencies --   3079.9592              3103.6915              3150.1825
 Red. masses --      1.0844                 1.0934                 1.0596
 Frc consts  --      6.0607                 6.2057                 6.1955
 IR Inten    --     12.5095                26.9173                 9.2635

                     76                     77                     78
                      A                      A                      A
 Frequencies --   3153.1793              3172.7365              3238.8530
 Red. masses --      1.1040                 1.0923                 1.1154
 Frc consts  --      6.4675                 6.4781                 6.8936
 IR Inten    --     12.1572                 3.7939                12.2669

 - Thermochemistry -
 -------------------
 Temperature   298.150 Kelvin.  Pressure   1.00000 Atm.
 Atom     1 has atomic number 30 and mass  63.92915

 Molecular mass:   544.94902 amu.
 Principal axes and moments of inertia in atomic units:
                           1         2         3
     Eigenvalues --  5446.24482********************
           X            0.93089  -0.29819   0.21099
           Y            0.29219   0.95449   0.05983
           Z           -0.21923   0.00596   0.97566
 This molecule is an asymmetric top.
 Rotational symmetry number  1.
 Warning -- assumption of classical behavior for rotation
           may cause significant error
 Rotational temperatures (Kelvin)      0.01590     0.00227     0.00223
 Rotational constants (GHZ):           0.33137     0.04723     0.04655
 Zero-point vibrational energy     491706.0 (Joules/Mol)
                                  117.52056 (Kcal/Mol)
 Warning -- explicit consideration of  30 degrees of freedom as
           vibrations may cause significant error
 Vibrational temperatures:      3.10     7.66    31.20    32.03    55.78
          (Kelvin)             64.82    70.10    93.93   132.16   174.00
                              196.21   196.92   243.66   264.33   308.45
                              314.16   358.13   375.64   387.29   395.75
                              411.90   440.49   611.46   614.28   624.85
                              645.93   708.14   743.67   789.95   797.25
                              924.83   982.98  1044.78  1116.77  1252.74
                             1324.03  1362.20  1381.46  1397.66  1415.85
                             1438.18  1474.49  1475.38  1482.28  1514.92
                             1541.45  1549.51  1563.76  1596.02  1628.20
                             1663.15  1696.54  1742.34  1776.46  1816.65
                             1880.14  1893.70  1923.70  1979.22  2011.88
                             2051.32  2062.53  2109.65  2128.82  2171.15
                             2190.38  2472.56  2643.56  4270.31  4288.49
                             4336.35  4416.81  4431.37  4465.52  4532.41
                             4536.72  4564.86  4659.99

 Zero-point correction=                           0.187281 (Hartree/Particle)
 Thermal correction to Energy=                    0.208003
 Thermal correction to Enthalpy=                  0.208948
 Thermal correction to Gibbs Free Energy=         0.126171
 Sum of electronic and zero-point Energies=          -1709.893587
 Sum of electronic and thermal Energies=             -1709.872864
 Sum of electronic and thermal Enthalpies=           -1709.871920
 Sum of electronic and thermal Free Energies=        -1709.954697

                     E (Thermal)             CV                S
                      KCal/Mol        Cal/Mol-Kelvin    Cal/Mol-Kelvin
 Total                  130.524             68.890            174.219
 Electronic               0.000              0.000              0.000
 Translational            0.889              2.981             44.772
 Rotational               0.889              2.981             37.332
 Vibrational            128.747             62.929             92.115
 Vibration     1          0.592              1.987             11.060
 Vibration     2          0.593              1.987              9.264
 Vibration     3          0.593              1.985              6.474
 Vibration     4          0.593              1.985              6.422
 Vibration     5          0.594              1.981              5.321
 Vibration     6          0.595              1.979              5.023
 Vibration     7          0.595              1.978              4.869
 Vibration     8          0.597              1.971              4.291
 Vibration     9          0.602              1.955              3.620
 Vibration    10          0.609              1.932              3.085
 Vibration    11          0.614              1.917              2.854
 Vibration    12          0.614              1.917              2.847
 Vibration    13          0.625              1.880              2.443
 Vibration    14          0.631              1.862              2.290
 Vibration    15          0.644              1.819              2.006
 Vibration    16          0.646              1.813              1.973
 Vibration    17          0.662              1.765              1.738
 Vibration    18          0.669              1.744              1.655
 Vibration    19          0.674              1.730              1.601
 Vibration    20          0.677              1.719              1.564
 Vibration    21          0.684              1.699              1.496
 Vibration    22          0.697              1.662              1.383
 Vibration    23          0.787              1.416              0.875
 Vibration    24          0.789              1.412              0.869
 Vibration    25          0.795              1.395              0.845
 Vibration    26          0.808              1.363              0.799
 Vibration    27          0.848              1.267              0.678
 Vibration    28          0.872              1.213              0.617
 Vibration    29          0.904              1.142              0.546
 Vibration    30          0.910              1.131              0.536

 Optimization completed on the basis of negligible forces.
    -- Stationary point found.
 Normal termination of Gaussian 16 at Tue Aug  1 08:12:13 2023.
